LAMMPS data file via write_data, version 11 Apr 2015, timestep = 1250100

16380 atoms
26 atom types
13879 bonds
127 bond types
2814 angles
4 angle types

-5.3024729961535876e+01 5.3024729961535876e+01 xlo xhi
-5.3024729961535876e+01 5.3024729961535876e+01 ylo yhi
-5.3024729961535876e+01 5.3024729961535876e+01 zlo zhi

Masses

1 34.716
2 25.716
3 34.716
4 48.07
5 39.07
6 48.07
7 24.707
8 22.707
9 22.707
10 24.707
11 10.681
12 9.681
13 8.681
14 10.681
15 33.226
16 24.226
17 17.226
18 34.436
19 25.436
20 18.436
21 57.09
22 43.025
23 42.017
24 42.395
25 41.387
26 42.395

Bond Coeffs # harmonic

1 300 3.86133
2 300 4.18975
3 300 3.556
4 300 2.67034
5 300 3.29076
6 300 3.73382
7 300 4.8409
8 300 3.60687
9 300 4.28732
10 300 3.57605
11 300 3.79758
12 300 3.74025
13 300 3.96178
14 300 3.11317
15 300 3.42338
16 300 3.64491
17 300 2.98055
18 300 3.20208
19 300 3.9471
20 300 4.07433
21 300 4.23853
22 300 3.47883
23 300 3.92166
24 300 4.07433
25 300 4.07433
26 150 4.07433
27 100 4.07433
28 75 4.07433
29 60 4.07433
30 30 4.07433
31 15 4.07433
32 10 4.07433
33 7.5 4.07433
34 6 4.07433
35 5 4.07433
36 4.2857 4.07433
37 3.75 4.07433
38 3.333 4.07433
39 3 4.07433
40 2.7272 4.07433
41 2.5 4.07433
42 2.3077 4.07433
43 2.1429 4.07433
44 2 4.07433
45 1.875 4.07433
46 1.7647 4.07433
47 1.666667 4.07433
48 1.5789 4.07433
49 1.5 4.07433
50 300 4.23853
51 300 4.23853
52 150 4.23853
53 100 4.23853
54 75 4.23853
55 60 4.23853
56 30 4.23853
57 15 4.23853
58 10 4.23853
59 7.5 4.23853
60 6 4.23853
61 5 4.23853
62 4.2857 4.23853
63 3.75 4.23853
64 3.333 4.23853
65 3 4.23853
66 2.7272 4.23853
67 2.5 4.23853
68 2.3077 4.23853
69 2.1429 4.23853
70 2 4.23853
71 1.875 4.23853
72 1.7647 4.23853
73 1.666667 4.23853
74 1.5789 4.23853
75 1.5 4.23853
76 300 3.92482
77 300 3.92482
78 150 3.92482
79 100 3.92482
80 75 3.92482
81 60 3.92482
82 30 3.92482
83 15 3.92482
84 10 3.92482
85 7.5 3.92482
86 6 3.92482
87 5 3.92482
88 4.2857 3.92482
89 3.75 3.92482
90 3.333 3.92482
91 3 3.92482
92 2.7272 3.92482
93 2.5 3.92482
94 2.3077 3.92482
95 2.1429 3.92482
96 2 3.92482
97 1.875 3.92482
98 1.7647 3.92482
99 1.666667 3.92482
100 1.5789 3.92482
101 1.5 3.92482
102 300 3.47883
103 300 3.47883
104 150 3.47883
105 100 3.47883
106 75 3.47883
107 60 3.47883
108 30 3.47883
109 15 3.47883
110 10 3.47883
111 7.5 3.47883
112 6 3.47883
113 5 3.47883
114 4.2857 3.47883
115 3.75 3.47883
116 3.333 3.47883
117 3 3.47883
118 2.7272 3.47883
119 2.5 3.47883
120 2.3077 3.47883
121 2.1429 3.47883
122 2 3.47883
123 1.875 3.47883
124 1.7647 3.47883
125 1.666667 3.47883
126 1.5789 3.47883
127 1.5 3.47883

Angle Coeffs # harmonic

1 300 180
2 300 60
3 300 150
4 1 180

Atoms # molecular

7781 48 4 -4.8024441390387828e+01 -4.4376990400128939e+01 -4.6756391063808749e+01 0 1 0
12120 189 21 -4.5592243690194451e+01 -4.3054272908572763e+01 -4.1904050479501002e+01 -1 0 0
13863 1061 21 -5.1267986230250386e+01 -5.1691612835442932e+01 -4.3782820055359444e+01 1 1 1
12763 511 21 -4.7198324962844460e+01 -4.7974165994331912e+01 -4.2807929477830896e+01 1 1 0
7783 48 16 -4.6198185388504690e+01 -4.7743889152890119e+01 -4.7602537435962383e+01 0 1 0
7784 48 15 -4.4121150459600216e+01 -4.9159288862740503e+01 -4.5492678078198388e+01 0 1 0
7782 48 5 -4.9779368203473638e+01 -4.8229418291877273e+01 -4.6714559211461257e+01 0 1 0
7785 48 15 -4.4351120057463426e+01 -4.5951220161381670e+01 -4.4930651001981616e+01 0 1 0
7389 41 5 -3.9706800825605001e+01 -5.2509712518954032e+01 -4.3476672783208031e+01 0 1 0
7386 41 15 -4.0576762073412077e+01 -4.9046556104195538e+01 -4.5258511065714529e+01 0 1 0
7789 48 4 -4.7049436198435906e+01 -4.5344336468412564e+01 -5.1156127070267509e+01 0 1 0
7786 48 15 -4.3678095105268476e+01 -4.3477739126423572e+01 -4.6907564708236357e+01 0 1 0
7787 48 16 -4.2913973189711896e+01 -4.6281990310932507e+01 -4.8420385638105273e+01 0 1 0
7788 48 5 -4.3062781594208161e+01 -4.4832812470026830e+01 -5.1875545180240707e+01 0 1 0
12717 488 21 -4.4122249160751451e+01 -4.9482229991021889e+01 -5.1127177291031778e+01 -1 0 0
7790 48 5 -5.1157820252285021e+01 -4.5753912133162061e+01 -5.0247088381308750e+01 0 1 0
14876 1567 21 -5.0554919395702363e+01 -4.1349408487129807e+01 -4.3806071665291554e+01 1 1 0
12764 511 21 -5.1901165264191810e+01 -4.6807087901936917e+01 -4.2479283061272056e+01 1 1 0
7780 48 6 -4.6327407615679270e+01 -4.0592539851641156e+01 -4.7086824446712058e+01 0 1 0
12119 189 21 -4.1903858584504988e+01 -4.1411169336364004e+01 -3.9126999952230690e+01 -1 0 0
12718 488 21 -4.8992355551315093e+01 -4.9668251420228522e+01 -5.1667344496807424e+01 -1 0 0
13864 1061 21 -4.7149234895703195e+01 -5.2051266320214879e+01 -4.6285961662020064e+01 1 1 1
13893 1076 21 -4.0423728723825128e+01 -4.4456684065638910e+01 -4.3976214379544679e+01 0 -1 0
13894 1076 21 -4.2793216555671648e+01 -4.7121910480273357e+01 -4.0730596242529344e+01 0 -1 0
14186 1222 21 -4.2408958928134965e+01 -5.2751787391672934e+01 -4.8083134333684313e+01 1 0 0
3346 66 18 -4.4250385495733362e+01 -5.1451132389202364e+01 -4.2373736483961096e+01 1 0 1
14185 1222 21 -3.9347367169245778e+01 -4.9216910064745520e+01 -4.9423682266070216e+01 1 0 0
7387 41 15 -3.8055182464928535e+01 -4.7070566421795405e+01 -4.6065928971667709e+01 0 1 0
7384 41 16 -3.6020252212837761e+01 -4.7485563069125746e+01 -4.3026336431767021e+01 0 1 0
7385 41 15 -3.9010709177830122e+01 -4.8690864109180445e+01 -4.2440223827921635e+01 0 1 0
11800 29 21 -3.9527929320699918e+01 -4.3987641028049843e+01 -4.8860058918482544e+01 0 1 0
15656 1957 21 -3.3029430571719203e+01 -4.2446273342901243e+01 -5.0985393945083835e+01 0 1 0
7388 41 16 -3.7262122223454782e+01 -5.0104819423309607e+01 -4.4978321948792185e+01 0 1 0
11278 126 24 -3.0026537662164358e+01 -4.4888242117086122e+01 -4.2312873408939026e+01 0 1 0
11279 126 25 -3.3613251290135480e+01 -4.2712544908229368e+01 -4.1520804885486925e+01 0 1 0
13247 753 21 -3.0325242284004005e+01 -4.6022085394078680e+01 -4.7948416452763254e+01 0 0 1
15485 1872 21 -3.2688525006123918e+01 -4.9613604164286031e+01 -4.4621103436399288e+01 1 1 -1
13248 753 21 -2.8268450767594619e+01 -5.0414618212441340e+01 -4.8255155438066453e+01 0 0 1
7383 41 5 -3.4279807759175966e+01 -4.5033347624425957e+01 -4.5227713711164739e+01 0 1 0
12623 441 21 -3.1310267010486282e+01 -4.1302589289294851e+01 -4.6419313502515735e+01 1 0 1
13439 849 21 -3.3491750195447963e+01 -5.0806648992261948e+01 -4.9561034113903489e+01 0 -1 0
7382 41 4 -3.5102786240124807e+01 -4.6503203336764606e+01 -4.9089856618283576e+01 0 1 0
11799 29 21 -3.6656590040732929e+01 -4.0646918096365162e+01 -4.6937658749957386e+01 0 1 0
11502 144 26 -2.9482847608672017e+01 -4.9279816132789264e+01 -4.0888064014369547e+01 0 0 0
11280 126 26 -3.7284275361664569e+01 -4.0545406519443745e+01 -4.0627080863842991e+01 0 1 0
7381 41 6 -3.5966314040035442e+01 -4.8289056695985309e+01 -5.2806504212964867e+01 0 1 0
11275 126 23 -2.6664037596666002e+01 -4.6855104608977221e+01 -4.3043273806125001e+01 0 1 0
15786 2022 21 -2.7633739176798457e+01 -4.0626052813153407e+01 -5.0060313230694881e+01 1 1 1
15726 1992 21 -2.6049936296130742e+01 -4.3133722167821631e+01 -4.5485250021685225e+01 0 0 1
11501 144 25 -2.8071160148702475e+01 -5.1968354781829362e+01 -4.3919273264234327e+01 0 0 0
13429 844 21 -3.5814435095680608e+01 -5.1144269256781890e+01 -4.0889348278787928e+01 0 1 0
15079 1669 21 -1.5335205382878819e+01 -5.1956228307795584e+01 -5.0476607515193180e+01 1 0 0
11281 126 24 -2.3706320463559699e+01 -5.0974645549691225e+01 -4.7432908266074108e+01 0 1 0
15965 2112 21 -2.5671581479558455e+01 -4.6557521323949899e+01 -4.9622589137105422e+01 0 0 1
11277 126 23 -2.3474908235794032e+01 -4.5307874201410385e+01 -4.3332675171445736e+01 0 1 0
11276 126 23 -2.4682372796424428e+01 -4.7390500131953935e+01 -4.5990792104013735e+01 0 1 0
2225 44 19 -2.4078707128238317e+01 -4.2240097037573626e+01 -5.2131681776611309e+01 0 1 0
2226 44 5 -2.2746547299816456e+01 -4.1253634711742237e+01 -4.8530862945847375e+01 0 1 0
15725 1992 21 -2.1879263320580371e+01 -4.1517398612050570e+01 -4.3581181236606398e+01 0 0 1
14871 1565 21 -1.9801824001668813e+01 -4.7919648053188233e+01 -4.5103748501302142e+01 1 0 1
14701 1480 21 -1.9548728120461455e+01 -5.0768815750232129e+01 -4.1294538085215606e+01 1 0 0
14872 1565 21 -1.9605523762553894e+01 -4.7372941847842689e+01 -4.9865938693696741e+01 1 0 1
10500 61 26 -1.7070988722846444e+01 -4.4307085682605880e+01 -4.1614619485230627e+01 0 0 0
10499 61 25 -1.6950478920421880e+01 -4.0012417329218081e+01 -4.1652089444116442e+01 0 0 0
14288 1273 21 -1.7128600182136246e+01 -4.2233896861727693e+01 -4.6141517843520710e+01 0 1 1
14702 1480 21 -2.4000857378196471e+01 -4.9729707346645938e+01 -4.2957926053267116e+01 1 0 0
14287 1273 21 -1.4930833028970639e+01 -4.6359152292800417e+01 -4.7451535258759328e+01 0 1 1
11284 126 24 -2.0834694373041032e+01 -4.5842470450133952e+01 -4.0385599671210024e+01 0 1 0
10648 73 24 -2.0365106002568851e+01 -5.2093134525582961e+01 -5.1793512164112713e+01 0 1 0
2445 48 19 -1.5709919442935302e+01 -4.2930414233235432e+01 -5.0490465749638872e+01 0 0 1
12016 137 21 -2.5331296994785998e+01 -5.2469261677587419e+01 -5.1885783478186717e+01 0 1 1
12884 571 21 -1.8952807231352480e+01 -5.2958507135484894e+01 -4.6430936962713901e+01 0 1 1
13019 639 21 -1.4145793296147254e+01 -5.0064489415252808e+01 -4.0888548770231921e+01 0 1 1
13967 1113 21 -2.5676552442596748e+01 -4.5162971672432178e+01 -3.9724776365212229e+01 -1 0 0
2446 48 5 -1.2553485296494728e+01 -4.1565897548655997e+01 -4.8595611487341671e+01 0 0 1
15080 1669 21 -1.3711189300436303e+01 -5.1211848021743030e+01 -4.5973710921168419e+01 1 0 0
13033 646 21 -7.2878523763844214e+00 -4.5662613044604917e+01 -5.2010280895270924e+01 1 0 0
14022 1140 21 -1.2439676182577898e+01 -4.2519496465480572e+01 -4.3871154770819615e+01 0 0 1
14021 1140 21 -9.5614168376636144e+00 -4.4567480722057915e+01 -4.7163923308848567e+01 0 0 1
13020 639 21 -1.0747623596319009e+01 -4.7156535182080113e+01 -4.2650980929795779e+01 0 1 1
2411 48 18 -3.9414554625000662e+00 -4.6497501843249744e+01 -4.7178064470165189e+01 0 0 1
10140 31 26 -2.8161827141478568e+00 -4.9218104423359321e+01 -5.0046595914814020e+01 0 0 0
2412 48 18 -5.3750385721249359e+00 -4.3275470092978082e+01 -4.8478454880964975e+01 0 0 1
12185 222 21 -7.7956672090784949e+00 -4.9371297570247116e+01 -4.6185317213038886e+01 1 1 1
15142 1700 21 -1.2793087627552282e+00 -4.8950383586527543e+01 -4.4428062850991566e+01 0 0 1
15531 1895 21 -1.1223543998989683e+01 -4.8837542476852462e+01 -4.9806950680372495e+01 -1 0 0
1725 34 1 -2.0184059641580063e+00 -4.1057039492394196e+01 -4.7164075539042493e+01 0 0 0
16166 2212 21 -5.4445905392739888e+00 -4.4136164831565658e+01 -4.3763641009508945e+01 0 0 0
12186 222 21 -6.1164946836325385e+00 -4.9289775556826108e+01 -4.1593392991764546e+01 1 1 1
2418 48 15 -2.9348705730535798e+00 -4.1209354085019285e+01 -4.1005751427508713e+01 0 0 1
2443 48 18 -1.1626698126806133e+01 -4.4150580906075113e+01 -5.1615591262232911e+01 0 0 1
2410 48 18 -2.6744323896176070e-01 -4.6133122386000011e+01 -4.7557715264511771e+01 0 0 1
12765 512 21 -1.4153550187884747e+00 -4.3084395297258190e+01 -5.1126207510293490e+01 0 1 0
9918 12 26 -9.4667074242215747e+00 -5.2491799259383534e+01 -4.2584461532640120e+01 0 1 0
2442 48 18 -9.1090228028774618e+00 -4.1528227110653049e+01 -5.0847733161748017e+01 0 0 1
2409 48 19 -1.1588740659897638e+00 -4.3971490564550365e+01 -4.4641463718306682e+01 0 0 1
2447 48 4 -1.2467122394521226e+01 -4.0341800835998384e+01 -5.2607953700853258e+01 0 0 1
11975 117 21 -4.3872075057300790e+01 -3.8891645846662968e+01 -5.1585059169727366e+01 0 1 0
12314 286 21 -4.9576710911410899e+01 -3.8557817810350365e+01 -5.0029354673865477e+01 0 0 1
2261 45 5 -5.1777583955720011e+01 -2.8191583254098298e+01 -5.1140823866758865e+01 0 0 0
14875 1567 21 -4.7501195390346865e+01 -3.7757605400621287e+01 -4.2657855228466772e+01 1 1 0
11976 117 21 -4.4762731240152462e+01 -3.6200195719436827e+01 -4.7685648619541666e+01 0 1 0
11199 119 26 -4.3193108915954227e+01 -3.9457080053393049e+01 -4.3899707185502400e+01 0 0 0
11198 119 25 -4.1183652216211357e+01 -3.9593289348054839e+01 -4.7662093653952788e+01 0 0 0
11880 69 21 -4.8528204932375964e+01 -2.9117608501987817e+01 -4.7796041551207686e+01 1 0 0
15837 2048 21 -4.2002801915373766e+01 -3.2758287803776369e+01 -4.2524267265596983e+01 2 0 1
13902 1080 21 -4.6041649627128763e+01 -2.7723444184101378e+01 -4.3792024233709782e+01 -1 1 0
14844 1551 21 -4.9022782611779974e+01 -3.3759163743488486e+01 -4.5836624882586435e+01 1 1 0
14509 1384 21 -4.2827389569522126e+01 -2.6938815887737402e+01 -4.8536979867248348e+01 0 0 1
15707 1983 21 -4.5077158290180527e+01 -3.1530217635616321e+01 -5.0274639358736927e+01 1 1 1
13008 633 21 -4.4042276170891704e+01 -3.6735969576089516e+01 -3.8951508246131603e+01 1 0 0
11879 69 21 -5.1635369381175259e+01 -2.9347180614895628e+01 -4.4089097058935835e+01 1 0 0
2260 45 19 -4.9250257465321681e+01 -3.0914664851521469e+01 -5.2423841560382030e+01 0 0 0
2259 45 18 -4.8215885690027079e+01 -3.4478883912055835e+01 -5.2231930531162696e+01 0 0 0
15576 1917 21 -4.0429702847239056e+01 -2.7675972680205302e+01 -4.3067975492753057e+01 -1 1 0
15838 2048 21 -3.9504543301941752e+01 -3.6326560414919513e+01 -4.4619488892896968e+01 2 0 1
15883 2071 21 -4.0429374341942761e+01 -3.5101599300197186e+01 -5.0437615451132601e+01 0 1 2
14843 1551 21 -5.2009331212419205e+01 -3.3382547859725371e+01 -4.9674854632067529e+01 1 1 0
8647 63 18 -5.2970252697138967e+01 -7.7582486908089692e+00 -3.7012635127842103e+01 0 0 0
6587 27 15 -4.9519054873965572e+01 -2.6863072301193029e+01 -4.1251954415029019e+01 0 0 0
12313 286 21 -5.2504890264603709e+01 -3.7450484720084035e+01 -4.6382356697875437e+01 0 0 1
13901 1080 21 -4.6970607158496620e+01 -3.2042305679812657e+01 -4.1787042833771281e+01 -1 1 0
13443 851 21 -5.2940521025448220e+01 -3.6695427149967060e+01 -4.1601292706002177e+01 1 0 0
11197 119 24 -3.9107082793039261e+01 -3.9920277344021940e+01 -5.1439588830755092e+01 0 0 0
13976 1117 21 -2.8019742296391229e+01 -3.8470681194158260e+01 -4.3043651229179048e+01 1 1 0
12624 441 21 -3.1050352485885064e+01 -3.6544833105689882e+01 -4.6987051681261306e+01 1 0 1
15884 2071 21 -3.9833395198752321e+01 -3.1057929601879373e+01 -4.7983551482055624e+01 0 1 2
11195 119 25 -3.5112410080266770e+01 -3.4057184807639189e+01 -4.5596156765462233e+01 0 0 0
14856 1557 21 -3.3905242032380897e+01 -3.7536323963588963e+01 -4.2321639238187942e+01 1 0 1
11196 119 26 -3.4940013424488498e+01 -3.2191776526836165e+01 -4.1735532303172739e+01 0 0 0
11194 119 24 -3.5289785734149788e+01 -3.5821473824825645e+01 -4.9519398461785102e+01 0 0 0
14721 1490 21 -3.1321810491585151e+01 -2.7596300926427702e+01 -5.1587118236790559e+01 0 0 1
16309 2284 21 -3.1883785148843554e+01 -2.9334119693390292e+01 -4.4690858848054759e+01 1 0 1
16310 2284 21 -3.0578997755121637e+01 -3.3591597761305593e+01 -4.2854584039942480e+01 1 0 1
15561 1910 21 -2.8089241032425594e+01 -3.0618425431143688e+01 -4.8113504966729337e+01 0 0 1
4465 18 19 -2.8647761954515701e+01 -2.9332615874236666e+01 -4.1640660004854610e+01 0 0 0
14722 1490 21 -3.2561119454508386e+01 -3.1772472811572634e+01 -4.9502943134913018e+01 0 0 1
15575 1917 21 -3.6838080763620979e+01 -2.7530921823223586e+01 -4.6279406895354292e+01 -1 1 0
12148 203 21 -3.6917702439167201e+01 -2.8222187899137509e+01 -5.1684750237827778e+01 0 0 1
1441 29 18 -3.9448785077887294e-02 -5.2870778564701247e+01 -3.6183292242203933e+01 0 1 0
15785 2022 21 -2.8032487206491130e+01 -3.5808200132119133e+01 -5.0831357185705272e+01 1 1 1
4685 22 19 -4.3990518475143304e+01 -3.7798662044978926e-01 -4.4484160731353349e+01 0 0 0
15959 2109 21 -1.8276484823388131e+01 -3.9322351403998567e+01 -4.9991613211234409e+01 1 0 0
13422 840 21 -1.4212374112352137e+01 -3.7959901461898440e+01 -4.5991442510138867e+01 0 1 1
2228 44 5 -2.6062758349945071e+01 -3.4571072665401168e+01 -4.4702060036418928e+01 0 1 0
2227 44 4 -2.4426309654795428e+01 -3.7883808782023948e+01 -4.6672302043507543e+01 0 1 0
4464 18 5 -2.5354428627062223e+01 -3.0267357749088042e+01 -4.3671941726068063e+01 0 0 0
13421 840 21 -1.8968615409258774e+01 -3.7507968039643416e+01 -4.5229314202352619e+01 0 1 1
14829 1544 21 -1.9891683427272291e+01 -3.3404378953007523e+01 -4.8706910336546208e+01 1 0 0
2230 44 15 -2.2101136331995210e+01 -2.9936942789198330e+01 -4.7610283124908719e+01 0 1 0
2229 44 16 -2.3692685278819940e+01 -3.2726917109903489e+01 -4.6870322075046751e+01 0 1 0
14778 1518 21 -2.1758611402239083e+01 -3.7208219530919187e+01 -4.1100906633314608e+01 1 1 -1
10498 61 24 -1.6586574050428084e+01 -3.5760831026186864e+01 -4.1617852286167789e+01 0 0 0
10497 61 23 -1.5250066554658957e+01 -2.8571516295827379e+01 -4.2969485584270892e+01 0 0 0
10495 61 23 -1.6245384641011988e+01 -3.1819921191040248e+01 -4.1644869361554051e+01 0 0 0
15761 2010 21 -2.0315924641242546e+01 -3.2586433148111254e+01 -4.3490429894023507e+01 0 1 2
4463 18 4 -2.4443605694434769e+01 -3.2757307394595593e+01 -4.0395634610841327e+01 0 0 0
2231 44 15 -2.0306477508082118e+01 -2.9572099380264302e+01 -5.0348755136515244e+01 0 1 0
14205 1232 21 -1.7913957629867646e+01 -2.8855924406876088e+01 -4.5916655122150928e+01 0 0 1
4438 18 6 -2.0352758225534174e+01 -2.7849615897584375e+01 -4.0836359218630434e+01 0 0 0
13369 814 21 -1.5517306604031013e+01 -3.5459901322860745e+01 -5.0884173215846126e+01 1 1 1
13809 1034 21 -1.4602465445250232e+01 -3.3118718246587278e+01 -4.5151173109269671e+01 1 0 0
2232 44 15 -2.0601093349893404e+01 -2.6774972597272033e+01 -4.8710775493525702e+01 0 1 0
15562 1910 21 -2.4895119670450374e+01 -2.7297763424072560e+01 -4.9596448752816073e+01 0 0 1
15445 1852 21 -1.7089418182606586e+01 -2.7057394331532596e+01 -5.1255633874945410e+01 0 0 1
4470 18 5 -2.4704237506392701e+01 -2.7239941930568136e+01 -4.0428000431368588e+01 0 0 0
13810 1034 21 -1.3988436731175227e+01 -3.0113897334550728e+01 -4.8954646821778475e+01 1 0 0
10504 61 24 -1.3617468900711501e+01 -2.6336048942822305e+01 -4.5813043568418770e+01 0 0 0
16281 2270 21 -2.3891531203217475e+01 -3.1791301949112881e+01 -5.1490875041200340e+01 0 1 1
14830 1544 21 -2.2574716903661908e+01 -3.6616130048557707e+01 -5.1130883959362919e+01 1 0 0
2413 48 19 -6.7019845365952619e+00 -3.9794975486962102e+01 -4.8444632267031707e+01 0 0 1
2414 48 5 -8.7521115919075640e+00 -3.8721501058677070e+01 -4.5178331590234606e+01 0 0 1
2404 48 15 -1.6137701310113073e+00 -3.0818459182441991e+01 -4.5780591861693836e+01 0 0 1
1724 34 2 -3.3103608998200613e+00 -3.7404087329490395e+01 -4.6758621459356696e+01 0 0 0
2419 48 15 -3.4436846072869116e+00 -3.9527540689304260e+01 -4.3766036017082314e+01 0 0 1
2415 48 4 -7.0050315325980748e+00 -3.9235073257379071e+01 -4.1392457301525056e+01 0 0 1
12766 512 21 -2.9632881349153166e+00 -3.8503509507679631e+01 -5.1160912878580191e+01 0 1 0
2402 48 15 -5.9128310537926083e+00 -3.0929252329751630e+01 -4.6150628604735985e+01 0 0 1
2420 48 15 -2.5967614472443117e+00 -3.6429736286654268e+01 -4.3026965709305088e+01 0 0 1
2424 48 5 -9.9106908643345761e+00 -2.8371380765599877e+01 -5.1003076086968321e+01 0 0 1
10244 40 23 -1.5739118843839819e+00 -2.7315771354853613e+01 -4.3145089195351247e+01 0 0 0
2401 48 16 -3.9609193428272462e+00 -3.3249504706461465e+01 -4.4819878647841882e+01 0 0 1
2421 48 16 -5.7589397056292384e+00 -3.6574222757355699e+01 -4.3990063964438860e+01 0 0 1
11235 122 26 -1.1325597907736842e+01 -2.9745614969201579e+01 -4.4384454223593821e+01 0 1 0
2423 48 4 -9.1636842011501258e+00 -3.1307202772022013e+01 -4.8014435860490444e+01 0 0 1
2422 48 5 -8.3561876957886128e+00 -3.4039874258045010e+01 -4.4989353016290885e+01 0 0 1
13725 992 21 -3.7588206173115566e+00 -2.7604033324971361e+01 -4.9129606577982749e+01 0 1 0
2399 48 4 -6.9099423206361479e+00 -3.5713287469478047e+01 -4.8813695359792462e+01 0 0 1
2400 48 5 -3.3934925153786111e+00 -3.3324515208717017e+01 -4.8515593702960373e+01 0 0 1
2398 48 6 -1.0469452980549519e+01 -3.7823877961082978e+01 -4.9316059972283789e+01 0 0 1
11234 122 25 -9.3264249288571861e+00 -2.6879467899396236e+01 -4.6873134980197385e+01 0 1 0
15359 1809 21 -1.2448739875671365e+01 -3.2672944707032151e+01 -4.0715664095036985e+01 0 0 0
3857 6 19 -7.9317908635434691e+00 -3.0807371269252119e+01 -4.2034972431477762e+01 0 0 0
2403 48 15 -3.9242001633844552e+00 -2.8573897684909301e+01 -4.4879707654522932e+01 0 0 1
12737 498 21 -2.2580541763441246e+00 -3.0804679622566429e+01 -4.1446188444471090e+01 0 0 1
16181 2220 21 -1.2124899460396151e+01 -3.7728502537490797e+01 -4.0701199252546182e+01 0 2 1
12738 498 21 -5.4689377374290657e+00 -3.4224362060109129e+01 -4.0249656842499817e+01 0 0 1
16230 2244 21 -1.0991688588947490e+01 -3.3819085968389722e+01 -5.1797792235915566e+01 0 1 0
2417 48 16 -2.6973831359827756e+00 -3.8069306992767949e+01 -3.9919343572527303e+01 0 0 1
1723 34 16 -5.8290757732148535e-01 -3.5452425024447301e+01 -4.5637034926987091e+01 0 0 0
3858 6 5 -7.8811535262019845e+00 -2.6909625519639452e+01 -4.2172408873290792e+01 0 0 0
13726 992 21 -5.6786079512873968e+00 -3.0942661155571919e+01 -5.2129379391353190e+01 0 1 0
6598 27 20 -5.2730582579108315e+01 -1.3845373581953439e+01 -4.6105453419421309e+01 0 0 0
2266 45 15 -5.2513517366586441e+01 -2.5499106308561949e+01 -4.2456947000025622e+01 0 0 0
2253 45 2 -4.6793756336091398e+01 -2.6222441708376017e+01 -5.1126251721438251e+01 0 0 0
6617 27 19 -4.5375743105631912e+01 -2.0025602302505277e+01 -5.2191944451764840e+01 0 0 0
6630 27 1 -4.6803650654608752e+01 -2.4514466002586349e+01 -4.7260861177283807e+01 0 0 0
6628 27 19 -4.6254904233709276e+01 -2.3602782049784548e+01 -4.1605337908217379e+01 0 0 0
2254 45 1 -4.3841703140586866e+01 -2.3724705660276424e+01 -5.1320719080280433e+01 0 0 0
6629 27 2 -4.9098779950203188e+01 -2.4030370110325620e+01 -4.4126861435841541e+01 0 0 0
6616 27 18 -4.8289249634575164e+01 -1.8992730567751771e+01 -5.0124600249774922e+01 0 0 0
6609 27 16 -4.3356941404475542e+01 -1.6368525366476568e+01 -5.0902877019468292e+01 0 0 0
6631 27 2 -5.0417087477755928e+01 -2.5026080987829449e+01 -4.8546771786995699e+01 0 0 0
2252 45 16 -4.7972397613827809e+01 -2.2948628067791990e+01 -5.0383402904073023e+01 0 0 0
6608 27 15 -4.4995116176194102e+01 -1.7965695187975605e+01 -4.8607119643766161e+01 0 0 0
6607 27 15 -4.5710138393748110e+01 -2.1124625490984027e+01 -4.8227296464710122e+01 0 0 0
2249 45 15 -5.1477350017056118e+01 -1.7559509594334727e+01 -4.5346005457674792e+01 0 0 0
6606 27 15 -4.8901281830825091e+01 -2.1359275104087331e+01 -4.7316953852258521e+01 0 0 0
2248 45 16 -5.0630408402776361e+01 -2.0592607519025393e+01 -4.4329095500674605e+01 0 0 0
2250 45 15 -5.1479645011041626e+01 -1.9122489530360866e+01 -4.8231412293111013e+01 0 0 0
2251 45 15 -5.1058007432771575e+01 -2.1814006648983934e+01 -5.0108896036569547e+01 0 0 0
6605 27 17 -4.6595828348857268e+01 -2.1133292386077894e+01 -4.4963798019990357e+01 0 0 0
2247 45 5 -4.8010895354104989e+01 -1.9140299732457812e+01 -4.1997094986028458e+01 0 0 0
6604 27 9 -4.4518804316769589e+01 -1.8460491482074104e+01 -4.5053070178700963e+01 0 0 0
6603 27 7 -4.7853201902381855e+01 -1.8160171966737927e+01 -4.6288667568052837e+01 0 0 0
2280 45 16 -5.2253591058140202e+01 -1.8140508387695590e+01 -5.1372807271727169e+01 0 0 0
2279 45 5 -5.0392300113253405e+01 -1.5569356477922000e+01 -4.9412337558714640e+01 0 0 0
6602 27 8 -4.8441839007302868e+01 -1.4678947518187655e+01 -4.5669835331203394e+01 0 0 0
6618 27 2 -4.2360134732073377e+01 -2.0413731031655587e+01 -4.9943549834069820e+01 0 0 0
6621 27 12 -4.5504280027701277e+01 -1.3777434269648801e+01 -4.5238662374975789e+01 0 0 0
14510 1384 21 -4.2554180914666304e+01 -2.3095896201180672e+01 -4.5591793248045491e+01 0 0 1
6622 27 11 -4.3496496223398580e+01 -1.4639090136489301e+01 -4.3658874207310703e+01 0 0 0
14664 1461 21 -5.1118067125558674e+01 -1.5101453311113552e+01 -4.1917989369966897e+01 0 0 1
6623 27 13 -4.2964619527710745e+01 -1.5709793690567807e+01 -4.1297108825318908e+01 0 0 0
6619 27 1 -4.1026502422991854e+01 -1.8962323242679489e+01 -4.6648770497920793e+01 0 0 0
6591 27 5 -5.0779841550326964e+01 -2.2286075323713117e+01 -4.0481682627164979e+01 0 0 0
82 2 18 -4.1654604214485346e+01 -2.3793002761317922e+01 -4.0776946724039078e+01 0 0 0
6626 27 18 -4.4195804010334840e+01 -2.0391420179018027e+01 -4.0510902854227865e+01 0 0 0
6620 27 3 -4.2610169512354865e+01 -1.5494062249668204e+01 -4.6729674946699397e+01 0 0 0
6632 27 16 -5.2195733130308824e+01 -2.2353465146122833e+01 -4.6917954378475670e+01 0 0 0
12284 271 21 -4.5930628674338742e+01 -1.3526192472533275e+01 -4.9219057233862792e+01 0 0 1
2255 45 2 -4.0781283244892862e+01 -2.5862856153652338e+01 -5.2382818038821725e+01 0 0 0
6080 18 5 -3.5953836161523611e-01 -2.5846616596315855e+00 -3.0948958769878889e+01 0 0 0
4454 18 5 -3.1804661839803060e+01 -2.5861534198371047e+01 -4.0904770811779414e+01 0 0 0
14091 1175 21 -3.3480286216415557e+01 -2.3146662253101713e+01 -5.1324011303881420e+01 0 0 1
2914 58 15 -4.2002351360765182e+01 -1.0929782253247566e-01 -5.2219031276769854e+01 0 0 0
14165 1212 21 -2.7456955140155525e+01 -2.6264819032796932e+01 -4.4774497292233413e+01 0 0 1
6610 27 5 -3.9779769926484633e+01 -1.7246822193520160e+01 -5.0370138479096688e+01 0 0 0
13675 967 21 -4.0069055780874699e+01 -1.9504141223858014e+01 -4.2092885198743943e+01 1 0 -1
14784 1521 21 -3.8565495531265348e+01 -2.1806953537778902e+01 -5.1490861269257394e+01 2 0 0
13676 967 21 -3.8272537928285324e+01 -1.5054141393741830e+01 -4.1368181024335769e+01 1 0 -1
2938 58 18 -3.6102473060321650e+01 -1.4682852222180856e+01 -5.0828920230455566e+01 0 0 0
12597 428 21 -3.3147420317723146e+01 -1.9538723618513920e+01 -4.4263315971937701e+01 2 0 1
14783 1521 21 -3.7686846311167521e+01 -2.2422123804501187e+01 -4.6722661242351073e+01 2 0 0
12230 244 21 -3.1905288887043497e+01 -1.6081818293336021e+01 -4.7745668417085909e+01 0 0 1
12229 244 21 -3.6563956862954612e+01 -1.6395709110600812e+01 -4.6316308357138865e+01 0 0 1
12598 428 21 -3.2261342975954747e+01 -2.3960576040176861e+01 -4.6085720040628679e+01 2 0 1
8056 52 2 -3.3554774319873246e+01 -1.5694797254664834e+01 -4.2052493788063217e+01 0 0 0
8021 52 18 -2.9609446971287625e+01 -1.9226278055816223e+01 -4.1482385344456588e+01 0 0 0
14092 1175 21 -2.8781943765950597e+01 -2.3358453002688744e+01 -5.0462251689525708e+01 0 0 1
12839 549 21 -3.6181130840287942e+01 -2.3751710182660037e+01 -4.2231496324359199e+01 0 0 0
8022 52 18 -2.8715241695317847e+01 -2.2842503588722025e+01 -4.1508131459143691e+01 0 0 0
16223 2241 21 -2.8277284803460525e+01 -1.6108416697519026e+01 -4.4300549474415320e+01 0 1 0
16224 2241 21 -2.6978547283362417e+01 -1.6147928888814974e+01 -4.8940009965050031e+01 0 1 0
2936 58 18 -3.4953398013210034e+01 -1.9644999988106861e+01 -4.8861756550170412e+01 0 0 0
2935 58 19 -3.1375127898195572e+01 -2.0380286264997771e+01 -4.8598908027530712e+01 0 0 0
2933 58 4 -3.0911723760744422e+01 -1.4954594710417808e+01 -5.2495045898539516e+01 0 0 0
14183 1221 21 -2.8254783611134101e+01 -2.0993736908044028e+01 -4.5550083682680096e+01 1 1 1
8058 52 15 -3.0130993605670231e+01 -1.5722530293545034e+01 -4.0438019650253253e+01 0 0 0
2934 58 5 -3.2080257238134635e+01 -1.8979093419383808e+01 -5.2293854031865493e+01 0 0 0
8057 52 16 -3.2351854935559594e+01 -1.7902031372077559e+01 -3.9467757094476099e+01 0 0 0
8020 52 18 -3.2312885956728977e+01 -2.1545918588686266e+01 -4.0352484211527560e+01 0 0 0
8015 52 16 -2.5717309855263171e+01 -1.6106628642607419e+01 -4.1010871889422980e+01 0 0 0
14166 1212 21 -2.2632314775448037e+01 -2.6627889373922205e+01 -4.5090384656138369e+01 0 0 1
2234 44 2 -2.0314690887778333e+01 -2.3739368930918474e+01 -5.1297345671400819e+01 0 1 0
16158 2208 21 -1.6825266995164746e+01 -2.5118206552834675e+01 -4.2332378168236197e+01 0 -1 1
2233 44 16 -2.1541973581065402e+01 -2.3728468517673402e+01 -4.7972543210409675e+01 0 1 0
16195 2227 21 -2.2193563092523849e+01 -1.4394763842223462e+01 -4.9138643069342379e+01 0 0 0
4474 18 15 -2.0762088738454899e+01 -1.8220118965144131e+01 -4.5076181164957390e+01 0 0 0
4473 18 16 -2.3516050652194739e+01 -1.6429883141817712e+01 -4.5265714310040622e+01 0 0 0
4472 18 5 -2.4732119818258170e+01 -1.9346552856285747e+01 -4.3300820457376389e+01 0 0 0
8012 52 15 -1.8906538653412454e+01 -1.8515339030990646e+01 -4.2349866552463162e+01 0 0 0
4471 18 4 -2.4624368777579424e+01 -2.3288709351029333e+01 -4.1855084166073539e+01 0 0 0
16157 2208 21 -2.0594838354865352e+01 -2.2346779429978056e+01 -4.3693907106008098e+01 0 -1 1
14184 1221 21 -2.4561949912405666e+01 -2.0991650326217759e+01 -4.8637589868071458e+01 1 1 1
14206 1232 21 -1.7473473916206608e+01 -2.4189261453781491e+01 -4.7067836178891817e+01 0 0 1
15648 1953 21 -1.3712049443476104e+01 -1.9044701842194819e+01 -4.8236078359913975e+01 0 0 0
3831 6 15 -1.4373767527606404e+01 -2.2356359808279866e+01 -4.5034070218031907e+01 0 0 0
8010 52 5 -1.5576917296782419e+01 -1.5907310930760850e+01 -4.1327426884848471e+01 0 0 0
4475 18 15 -2.1874036603720199e+01 -1.6919581242529681e+01 -4.2275630232171842e+01 0 0 0
15995 2127 21 -1.9039617915533363e+01 -1.9603489273926662e+01 -4.8902734105961684e+01 0 0 1
3833 6 16 -1.6427173182305687e+01 -2.0707120921770546e+01 -4.1682868523560138e+01 0 0 0
3832 6 15 -1.7056717276395965e+01 -2.0512567280437715e+01 -4.4879957970266034e+01 0 0 0
15996 2127 21 -1.7241719677221418e+01 -1.6322147563772226e+01 -4.5758255109683148e+01 0 0 1
8013 52 15 -2.1042458989786955e+01 -1.9393499782474230e+01 -3.9999282143569893e+01 0 0 0
4317 15 5 -1.5324559604985041e+01 -1.4999375739998847e+01 -5.0030472127472606e+01 0 0 1
3834 6 5 -1.3237688074899928e+01 -2.2361301043899260e+01 -4.0695242199862832e+01 0 0 0
3830 6 15 -1.3577367947878052e+01 -1.9583466262392356e+01 -4.3436393119020863e+01 0 0 0
8011 52 16 -1.9211522588837326e+01 -1.5840880570237921e+01 -4.0335832041400536e+01 0 0 0
13554 906 21 -1.5619061557993049e+01 -2.2584309022415589e+01 -5.2299982123931841e+01 0 1 0
4315 15 18 -1.9487123383942880e+01 -1.6154181295127650e+01 -5.2077131212986572e+01 0 0 1
3826 6 6 -1.2213948988750808e+01 -2.6550964071476169e+01 -4.1496345709631775e+01 0 0 0
10506 61 26 -9.9675073326776200e+00 -2.0940567029089870e+01 -5.1355406381701947e+01 0 0 0