LAMMPS data file via write_data, version 31 Mar 2017, timestep = 1000000

13789 atoms
26 atom types
12017 bonds
127 bond types
2100 angles
4 angle types

-4.8901697959536797e+01 4.8901697959536797e+01 xlo xhi
-4.8901697959536797e+01 4.8901697959536797e+01 ylo yhi
-4.8901697959536797e+01 4.8901697959536797e+01 zlo zhi

Masses

1 34.716
2 25.716
3 34.716
4 48.07
5 39.07
6 48.07
7 24.707
8 22.707
9 22.707
10 24.707
11 10.681
12 9.681
13 8.681
14 10.681
15 33.226
16 24.226
17 17.226
18 34.436
19 25.436
20 18.436
21 57.09
22 43.025
23 42.017
24 42.395
25 41.387
26 42.395

Bond Coeffs # harmonic

1 300 3.86133
2 300 4.18975
3 300 3.556
4 300 2.67034
5 300 3.29076
6 300 3.73382
7 300 4.8409
8 300 3.60687
9 300 4.28732
10 300 3.57605
11 300 3.79758
12 300 3.74025
13 300 3.96178
14 300 3.11317
15 300 3.42338
16 300 3.64491
17 300 2.98055
18 300 3.20208
19 300 3.9471
20 300 4.07433
21 300 4.23853
22 300 3.47883
23 300 3.92166
24 300 4.07433
25 300 4.07433
26 150 4.07433
27 100 4.07433
28 75 4.07433
29 60 4.07433
30 30 4.07433
31 15 4.07433
32 10 4.07433
33 7.5 4.07433
34 6 4.07433
35 5 4.07433
36 4.2857 4.07433
37 3.75 4.07433
38 3.333 4.07433
39 3 4.07433
40 2.7272 4.07433
41 2.5 4.07433
42 2.3077 4.07433
43 2.1429 4.07433
44 2 4.07433
45 1.875 4.07433
46 1.7647 4.07433
47 1.66667 4.07433
48 1.5789 4.07433
49 1.5 4.07433
50 300 4.23853
51 300 4.23853
52 150 4.23853
53 100 4.23853
54 75 4.23853
55 60 4.23853
56 30 4.23853
57 15 4.23853
58 10 4.23853
59 7.5 4.23853
60 6 4.23853
61 5 4.23853
62 4.2857 4.23853
63 3.75 4.23853
64 3.333 4.23853
65 3 4.23853
66 2.7272 4.23853
67 2.5 4.23853
68 2.3077 4.23853
69 2.1429 4.23853
70 2 4.23853
71 1.875 4.23853
72 1.7647 4.23853
73 1.66667 4.23853
74 1.5789 4.23853
75 1.5 4.23853
76 300 3.92482
77 300 3.92482
78 150 3.92482
79 100 3.92482
80 75 3.92482
81 60 3.92482
82 30 3.92482
83 15 3.92482
84 10 3.92482
85 7.5 3.92482
86 6 3.92482
87 5 3.92482
88 4.2857 3.92482
89 3.75 3.92482
90 3.333 3.92482
91 3 3.92482
92 2.7272 3.92482
93 2.5 3.92482
94 2.3077 3.92482
95 2.1429 3.92482
96 2 3.92482
97 1.875 3.92482
98 1.7647 3.92482
99 1.66667 3.92482
100 1.5789 3.92482
101 1.5 3.92482
102 300 3.47883
103 300 3.47883
104 150 3.47883
105 100 3.47883
106 75 3.47883
107 60 3.47883
108 30 3.47883
109 15 3.47883
110 10 3.47883
111 7.5 3.47883
112 6 3.47883
113 5 3.47883
114 4.2857 3.47883
115 3.75 3.47883
116 3.333 3.47883
117 3 3.47883
118 2.7272 3.47883
119 2.5 3.47883
120 2.3077 3.47883
121 2.1429 3.47883
122 2 3.47883
123 1.875 3.47883
124 1.7647 3.47883
125 1.66667 3.47883
126 1.5789 3.47883
127 1.5 3.47883

Angle Coeffs # harmonic

1 300 180
2 300 60
3 300 150
4 1 180

Atoms # molecular

11296 589 21 -3.8836456828266769e+01 -4.6349291998026899e+01 -4.1019908917204901e+01 0 -1 1
1235 25 2 -4.8340303537434366e+01 -4.7769982521225650e+01 -4.3593168130272048e+01 0 -1 1
10595 238 21 -4.2810893281775968e+01 -4.4010309456027443e+01 -3.7466859844419787e+01 0 -2 2
10594 238 21 -4.3975323165638791e+01 -4.4629728173713751e+01 -4.2177851752293172e+01 0 -2 2
12696 1289 21 -3.7555406497967361e+01 -4.2483056359581461e+01 -3.8327616894328401e+01 1 -1 2
7152 36 3 -4.0372474032568633e+01 -4.7758433293951661e+01 -4.5390892490499589e+01 0 -1 2
5947 15 2 -4.0922218342522278e+01 -4.3690646909819648e+01 -4.5287994328009475e+01 0 -1 2
10779 330 21 -4.6178698267012969e+01 -4.0911967213229346e+01 -3.9497753228756586e+01 0 -1 2
1270 25 18 -4.6838032615751494e+01 -4.0921350558481507e+01 -4.3803987020808329e+01 0 -1 1
1272 25 19 -4.2860518047815511e+01 -4.0350132629627282e+01 -4.3446864419917446e+01 0 -1 1
7148 36 15 -4.6459675728847813e+01 -4.6290518746706638e+01 -4.6624430508202536e+01 0 -1 2
11198 540 21 -3.7368224069948326e+01 -4.1308008640979359e+01 -4.3187768561396098e+01 1 -1 2
1271 25 18 -4.4445360222363206e+01 -4.1709188600587993e+01 -4.6523274998853928e+01 0 -1 1
11294 588 21 -4.1622018710424619e+01 -3.8289949687237630e+01 -3.9450373565810715e+01 1 -1 2
5946 15 1 -4.0812111289353773e+01 -4.0073111631364839e+01 -4.6718757589483907e+01 0 -1 2
2037 40 19 -3.7247724484845399e+01 -4.5318507341327489e+01 -4.5168293068486705e+01 0 -1 1
2036 40 18 -3.7847407627753824e+01 -4.2506514175990162e+01 -4.7544880496162307e+01 0 -1 1
7149 36 16 -4.3317579968959826e+01 -4.5996139964636086e+01 -4.7557609684591668e+01 0 -1 2
10778 330 21 -4.7943833970042249e+01 -4.5182982693594319e+01 -3.8043507635217914e+01 0 -1 2
10659 270 21 -3.7278577674540344e+01 -3.7724874946757751e+01 -4.7246866703590904e+01 0 -2 1
1273 25 2 -4.0302842779078084e+01 -3.7543961217168047e+01 -4.3674730028150769e+01 0 -1 1
2038 40 2 -3.6908442399372419e+01 -4.8235898673996175e+01 -4.7573346075261199e+01 0 -1 1
1269 25 18 -4.8568270791602053e+01 -4.3170697411021685e+01 -4.6282526524408176e+01 0 -1 1
5949 15 15 -3.9487589640160252e+01 -4.5679378461925431e+01 -4.8633998307914183e+01 0 -1 2
11465 673 21 -4.5993253666244662e+01 -3.6738838462228323e+01 -4.1983107108181578e+01 1 -3 1
11297 589 21 -4.0890648919457639e+01 -4.8749472878511682e+01 -3.7364786335523036e+01 0 -1 1
12410 1146 21 -4.7819446007371575e+01 -3.9577428644502056e+01 -4.8792807114705958e+01 1 -1 2
5948 15 16 -4.1459390165404812e+01 -4.3044910692895172e+01 -4.8768084254466295e+01 0 -1 2
12111 996 21 -2.6787372886473364e+01 -4.6791568194831719e+01 -3.9606149698341838e+01 0 -1 2
10118 138 25 -3.5621873063213755e+01 -4.7278514171080609e+01 -3.6710056695588349e+01 1 -1 1
12238 1060 21 -2.8783226042353562e+01 -4.6099005114471268e+01 -4.4667139662907090e+01 1 -1 2
2039 40 1 -3.5362941642392244e+01 -4.8814810032611511e+01 -4.4089134689955330e+01 0 -1 1
11257 569 21 -3.1071641529084474e+01 -4.4103574417448371e+01 -3.8083942711909003e+01 1 -1 1
13255 1568 21 -3.3751412346607466e+01 -4.4975876479519656e+01 -4.2404138225525486e+01 0 -1 2
12311 1096 21 -2.7086744514842259e+01 -4.1091101921779178e+01 -3.9776344085908065e+01 0 -1 0
11140 511 21 -2.7783825688172865e+01 -4.0524128690814358e+01 -4.5105317952651852e+01 1 -1 2
13254 1568 21 -3.2098983017544427e+01 -4.0483041151071419e+01 -4.2298743834802075e+01 0 -1 2
12697 1289 21 -3.3777115395983955e+01 -3.9642468023364323e+01 -3.7317349171850537e+01 1 -1 2
10480 181 21 -3.1918934221077638e+01 -4.2739083898093284e+01 -4.6849870800905649e+01 0 -1 1
12239 1060 21 -3.2302101134785374e+01 -4.7628692033443556e+01 -4.7682892523312262e+01 1 -1 2
2023 40 1 -2.5027721616611021e+01 -4.3737018450237386e+01 -4.7709963500803795e+01 0 -1 1
12310 1096 21 -2.5270919030135115e+01 -3.6772410769101938e+01 -4.1168968945525755e+01 0 -1 0
10481 181 21 -3.2267200938214927e+01 -3.7870064945699099e+01 -4.7211827827356835e+01 0 -1 1
11199 540 21 -3.5855197986966232e+01 -3.6742695533044305e+01 -4.2518583827815426e+01 1 -1 2
11256 569 21 -3.1678786423994538e+01 -4.8751322662525922e+01 -3.9314644769291256e+01 1 -1 1
9814 113 24 -2.1753892537746438e+01 -4.8217082606939407e+01 -3.9093026516932099e+01 0 -1 1
8079 53 18 -1.4354218800960794e+01 -4.8081360516042551e+01 -3.9051297788927897e+01 0 -1 1
11061 471 21 -1.8990417357846638e+01 -4.5037564387836539e+01 -3.6978548036265963e+01 1 -2 0
11517 699 21 -1.3323309624539490e+01 -4.6398486444751072e+01 -4.3330828564588501e+01 1 -1 2
9809 113 23 -2.3000999784903236e+01 -4.4431237017644165e+01 -3.9361879556635898e+01 0 -1 1
10199 40 21 -2.3196814883925224e+01 -4.5119589562095989e+01 -4.3698087286181931e+01 0 -2 2
10198 40 21 -1.8409836183192812e+01 -4.5405941114177338e+01 -4.3327788225077249e+01 0 -2 2
6704 29 16 -2.0414003606852138e+01 -4.8790079038937535e+01 -4.5850641304957968e+01 0 -1 1
9808 113 23 -2.3103223232427062e+01 -4.1351496850853891e+01 -3.7566175136638080e+01 0 -1 1
9810 113 23 -2.3275273190150969e+01 -4.1362010209948416e+01 -4.1157532859742801e+01 0 -1 1
13562 1722 21 -1.5201768942164293e+01 -4.3007902771823360e+01 -3.9690120037519350e+01 0 -2 1
10664 273 21 -1.9810034845706479e+01 -4.0225405118751077e+01 -3.9834688138130161e+01 0 -1 1
2009 40 16 -1.5830841776556454e+01 -4.7637723202462055e+01 -4.6457638077255389e+01 0 -1 1
10607 244 21 -1.6709656126460438e+01 -3.9421886833131161e+01 -4.4291172568050300e+01 0 -1 1
2010 40 15 -1.8705697579251403e+01 -4.6529481616527065e+01 -4.7566418873023622e+01 0 -1 1
9817 113 24 -2.1996275241340864e+01 -3.8917644990426737e+01 -4.4014771404342333e+01 0 -1 1
10606 244 21 -1.5452611790752037e+01 -4.3238421453042200e+01 -4.6980505495721822e+01 0 -1 1
2026 40 15 -2.0616084706224854e+01 -4.3370269620624825e+01 -4.6929685895173918e+01 0 -1 1
2025 40 16 -1.9631079949411127e+01 -4.0230210049462883e+01 -4.7017174931826318e+01 0 -1 1
2011 40 15 -2.2001731090666944e+01 -4.6309344761227671e+01 -4.7716821858958987e+01 0 -1 1
13284 1583 21 -1.2256332593801311e+01 -3.7129677912358289e+01 -4.5371773390807839e+01 0 -1 2
2008 40 2 -1.2988121511856306e+01 -4.8337706064772995e+01 -4.8445401271740366e+01 0 -1 1
2024 40 2 -2.3093240610801956e+01 -4.0429477690848920e+01 -4.7799931458234482e+01 0 -1 1
3571 71 1 -1.2461493051435021e+01 -3.9963099785201706e+01 -4.8696411094964454e+01 0 -1 1
8078 53 18 -1.0687212948061010e+01 -4.7365106306987123e+01 -3.9191901865960169e+01 0 -1 1
6151 19 15 -4.1842865780376144e+00 -4.8464552071250040e+01 -3.7285158280609423e+01 0 -1 1
8121 53 1 -3.5889826983438624e+00 -4.6641580484364503e+01 -4.0463489446743431e+01 0 -1 1
8077 53 18 -9.1705291810277316e+00 -4.5154029311008657e+01 -4.1794256912482986e+01 0 -1 1
8076 53 19 -7.0447130921742769e+00 -4.6172695361408643e+01 -3.8915286923092530e+01 0 -1 1
1994 40 15 -5.9101764509405967e+00 -4.4164046715075933e+01 -4.3604806182003735e+01 0 -1 1
9753 108 24 -1.6619882922590747e+00 -4.3516029934375290e+01 -4.2227323707339764e+01 0 -2 2
11482 682 21 -4.1566016780873198e+00 -4.8018486949491077e+01 -4.5113950544645583e+01 0 -2 1
13563 1722 21 -1.0441139950764040e+01 -4.1988306110147164e+01 -3.8998616269109391e+01 0 -2 1
1993 40 16 -7.7337225812628532e+00 -4.1860322713141173e+01 -4.2203182286495078e+01 0 -1 1
13285 1583 21 -1.1720084551276216e+01 -4.1688271389728655e+01 -4.3945638484818915e+01 0 -1 2
11388 635 21 -4.8475296756754602e+00 -4.1498879566483424e+01 -3.8995340212460007e+01 1 -1 2
11516 699 21 -9.2432508010209702e+00 -4.8281659203899281e+01 -4.5202570578402522e+01 1 -1 2
10287 84 21 -2.9684905047923493e+00 -4.3029445777268350e+01 -4.6656656895756441e+01 0 0 2
763 15 2 -4.4577781433520229e+00 -4.0267025618082222e+01 -4.3592674514520311e+01 0 -1 2
1995 40 15 -7.1526853332775033e+00 -4.4763260957712596e+01 -4.6537978940139936e+01 0 -1 1
765 15 3 -7.6643239284915197e+00 -4.0550560790616117e+01 -4.6389682353544863e+01 0 -1 2
760 15 18 -1.4306800404061377e+00 -3.9406752913434204e+01 -4.1378393552417336e+01 0 -1 2
1992 40 2 -8.4771229856680534e+00 -3.8385393798377258e+01 -4.2844827644849637e+01 0 -1 1
737 15 15 -4.4631490050663558e-01 -3.9688059399584908e+01 -4.7890113007176524e+01 0 -1 2
759 15 18 -4.1184735405523440e+00 -3.6843013102315325e+01 -4.1636480264219756e+01 0 -1 2
762 15 19 -1.8799159979346598e+00 -3.7963656906191368e+01 -4.5018766477216005e+01 0 -1 2
764 15 1 -5.8059656416155434e+00 -3.7253209974006623e+01 -4.5617827660844867e+01 0 -1 2
1996 40 15 -1.0422883357469850e+01 -4.4647547427998703e+01 -4.6656026031012978e+01 0 -1 1
6135 19 2 -2.9744873939369540e+00 -3.7442770864235627e+01 -3.7842625152818769e+01 0 -1 1
8105 53 13 -7.3612471844549248e+00 -4.8864843402083352e+01 -4.1656474008899174e+01 0 -1 1
11737 809 21 -4.3651244077378685e+01 -3.6582932955288015e+01 -4.6710909710972828e+01 0 -1 2
12425 1153 21 -4.1852724758257644e+01 -3.0955013946657377e+01 -4.8512114854203759e+01 1 -3 2
1274 25 1 -4.0127608695302207e+01 -3.4263975703199385e+01 -4.5725779134846007e+01 0 -1 1
11295 588 21 -3.9705379273767917e+01 -3.4085023593380619e+01 -4.0882153383587180e+01 1 -1 2
12855 1368 21 -4.4875660205586861e+01 -3.2063360431645521e+01 -4.4077801758148972e+01 0 -2 2
12943 1412 21 -4.5109598781548335e+01 -3.1375662725941943e+01 -3.9294319083424838e+01 1 -1 2
1275 25 1 -4.0615720354721518e+01 -3.0979992563099817e+01 -4.3820627389416138e+01 0 -1 1
13357 1619 21 -4.1803688874323768e+01 -2.7064127969940763e+01 -4.1151255288287558e+01 0 -1 1
13356 1619 21 -3.7500919700015672e+01 -2.9170946630266872e+01 -4.0415111740298556e+01 0 -1 1
12424 1153 21 -4.3801903043453720e+01 -2.7377819202015928e+01 -4.5947975222276924e+01 1 -3 2
12942 1412 21 -4.5196519671977981e+01 -2.7102740729531025e+01 -3.7046591143144369e+01 1 -1 2
9312 71 24 -3.9001811565498407e+01 -2.7469632123106013e+01 -4.5111747475688944e+01 0 -1 1
6812 31 1 -4.8341602347209779e+01 -2.5601289128087924e+01 -4.0436135795243025e+01 1 -1 1
12854 1368 21 -4.8632034525911706e+01 -2.9159502560053152e+01 -4.3159935102016057e+01 0 -2 2
6811 31 3 -4.7125083806883445e+01 -2.4862038664898957e+01 -4.4059924555800052e+01 1 -1 1
13752 1817 21 -4.8425306994407009e+01 -2.4599779794847457e+01 -4.8272345910901677e+01 1 -1 1
6849 31 12 -4.8024526240757893e+01 -3.0000228969103805e+01 -3.6928284766235777e+01 1 -1 1
13699 1790 21 -3.6839529149186447e+01 -3.3029442497572397e+01 -4.8599007329013254e+01 1 -1 2
10970 426 21 -4.6860495021779336e+01 -3.0300466253427658e+01 -4.8570514706604740e+01 1 -2 2
12492 1187 21 -3.2019202623302618e+01 -2.8166551349876908e+01 -4.7773948570978561e+01 1 -3 0
13698 1790 21 -3.5381743027909735e+01 -3.1818589038001910e+01 -4.4116083022719060e+01 1 -1 2
13459 1670 21 -3.5018702987377885e+01 -3.4043202435342160e+01 -3.8382820623128566e+01 1 -1 1
12333 1107 21 -2.9548808443823923e+01 -3.6576710272010629e+01 -3.6937223526917997e+01 1 -2 1
10474 178 21 -2.9981532791084462e+01 -3.5596537770141836e+01 -4.2299579755438252e+01 0 -1 1
10475 178 21 -2.6546675248542595e+01 -3.2152505420001702e+01 -4.2361484935908507e+01 0 -1 1
13477 1679 21 -3.0786308161583637e+01 -2.9860993077660716e+01 -4.3043300678725117e+01 1 -2 1
13476 1679 21 -3.0300299660043514e+01 -3.1842344895385150e+01 -3.8663791808275960e+01 1 -2 1
13714 1798 21 -2.7141396508527482e+01 -2.8538620421062642e+01 -4.6487840740260104e+01 0 -1 1
11141 511 21 -2.5651756552800006e+01 -3.6402879640251939e+01 -4.6549083469427636e+01 1 -1 2
9543 90 26 -3.4714620102810606e+01 -2.6644117323156905e+01 -4.3191602335276428e+01 0 -1 2
12434 1158 21 -2.9757150959682370e+01 -3.2838003664371342e+01 -4.7322436379533720e+01 2 -3 2
11192 537 21 -2.7159230804615657e+01 -2.6394138808096564e+01 -4.1954386586253193e+01 1 -2 1
11193 537 21 -3.1218928179631668e+01 -2.4823570019241991e+01 -3.9780057193592562e+01 1 -2 1
11814 848 21 -2.4921900757804497e+01 -2.6698144442798572e+01 -3.7583082056326369e+01 0 -1 2
9542 90 25 -3.0902312168238861e+01 -2.5207796186308386e+01 -4.4516645358542398e+01 0 -1 2
13543 1712 21 -3.3960468873072770e+01 -2.8598712477129801e+01 -3.7102033659181799e+01 1 -2 1
13715 1798 21 -2.3858995623424004e+01 -3.1822198182313095e+01 -4.7723089426825915e+01 0 -1 1
13571 1726 21 -2.2546802414265777e+01 -2.6951028848140965e+01 -4.8271430949374086e+01 -1 -1 1
10309 95 21 -1.9309970012705328e+01 -3.0359118621352223e+01 -4.6535641732974696e+01 0 -2 2
10308 95 21 -1.6441092511749908e+01 -3.4218681328675373e+01 -4.6121212406153603e+01 0 -2 2
13010 1446 21 -2.1626775136486110e+01 -3.5668503596125177e+01 -3.7958321402648679e+01 0 -1 1
10895 388 21 -1.7772998430684023e+01 -3.5807568747430722e+01 -4.0975116657061612e+01 1 -1 2
10894 388 21 -2.1566849850499509e+01 -3.3769224603378966e+01 -4.3149444943136665e+01 1 -1 2
11705 793 21 -1.7590147184353558e+01 -3.0865195430887045e+01 -4.1890686836173842e+01 0 -1 1
11815 848 21 -2.2831714984551741e+01 -3.0830675924047913e+01 -3.8913839818737173e+01 0 -1 2
11704 793 21 -1.3355737497399716e+01 -2.8681073909547841e+01 -4.1052373157611314e+01 0 -1 1
9536 90 25 -1.4579675547068760e+01 -2.9119606570148409e+01 -4.5765056528161146e+01 0 -1 2
13570 1726 21 -2.2605282673206940e+01 -2.7996337515469275e+01 -4.3590788131643109e+01 -1 -1 1
9818 113 25 -2.0640151988083225e+01 -3.6285795406680535e+01 -4.7091673037481534e+01 0 -1 1
13214 1548 21 -1.7319542359519073e+01 -3.0627115097786731e+01 -3.6805224201002432e+01 0 -1 1
9535 90 24 -1.7520745324118231e+01 -2.6106478543542767e+01 -4.6750734154724086e+01 0 -1 2
10351 116 21 -1.8399043381578650e+01 -2.5914043154483764e+01 -4.0974139048784430e+01 1 -1 1
11820 851 21 -1.2763229439438391e+01 -2.5472465967267684e+01 -4.7836262312767794e+01 0 -1 1
12230 1056 21 -1.2956962321567239e+01 -3.4097746607609906e+01 -4.0414468836412965e+01 -1 -2 0
12537 1209 21 -1.4313597770449292e+01 -2.4650020272777759e+01 -3.7231035339931296e+01 0 -2 2
754 15 16 -7.7618726479569489e-01 -3.1106645343557130e+01 -4.4840949856399547e+01 0 -1 2
9537 90 24 -1.1651845738642180e+01 -3.2016700853736637e+01 -4.4608998343594237e+01 0 -1 2
1991 40 1 -7.9937332397521033e+00 -3.5000412063284408e+01 -4.1090937034530292e+01 0 -1 1
6134 19 16 -5.7738395190126965e+00 -3.5249278238487335e+01 -3.7698928953482579e+01 0 -1 1
758 15 19 -1.4914841134931152e+00 -3.4579032079723973e+01 -4.0362674383861396e+01 0 -1 2
6133 19 15 -4.7183884068592405e+00 -3.3229830914414208e+01 -4.0121261903832774e+01 0 -1 1
757 15 2 -1.9601466670306138e+00 -3.3595355132233287e+01 -3.6713735621943300e+01 0 -1 2
1990 40 1 -8.5384524820302588e+00 -3.4586694113832699e+01 -4.4859419931274495e+01 0 -1 1
740 15 1 -2.9273981033339140e+00 -3.3887131131911325e+01 -4.3936198531694615e+01 0 -1 2
6132 19 15 -4.7569748404392058e+00 -3.1044051341721897e+01 -3.7679672386831847e+01 0 -1 1
741 15 2 -5.9861634095815575e+00 -3.1544857368320436e+01 -4.3191136018008613e+01 0 -1 2
756 15 1 -9.8749982149491444e-01 -2.9959803457383028e+01 -3.7648781230434892e+01 0 -1 2
755 15 2 -1.7589556847450183e+00 -3.0809271929510246e+01 -4.1352524786693778e+01 0 -1 2
12103 992 21 -8.8108116691063145e+00 -3.0947744302036138e+01 -3.9688938256188933e+01 1 -1 2
742 15 19 -3.8583409789491228e+00 -2.9853592575290911e+01 -4.5862686445772077e+01 0 -1 2
12165 1023 21 -4.9196913221292888e+00 -2.7658665458601504e+01 -4.0835400000663164e+01 0 -1 2
11821 851 21 -9.8782612479656891e+00 -2.6280389521896311e+01 -4.4011923888114417e+01 0 -1 1
739 15 2 -1.3720626047835651e+00 -3.4851859028252306e+01 -4.7383554715084649e+01 0 -1 2
12164 1023 21 -2.1224835286057200e+00 -2.6001933558002932e+01 -4.4480535423861873e+01 0 -1 2
8835 31 26 -4.8570416552804119e-01 -2.6604615928150402e+01 -3.9937706937909454e+01 0 -1 2
13689 1785 21 -5.9987250451240328e+00 -3.2762238373292398e+01 -4.8484037309390679e+01 0 -2 1
743 15 18 -1.4209254754333500e+00 -3.0908164250120659e+01 -4.8533734090513867e+01 0 -1 2
13688 1785 21 -6.6532595609989542e+00 -2.7980574174564961e+01 -4.8759511009914895e+01 0 -2 1
744 15 18 -2.0991806529156776e+00 -2.7291136395130088e+01 -4.8722736838551782e+01 0 -1 2
10410 146 21 -4.5313315262561360e+01 -1.9312029810357146e+01 -4.6629155942408993e+01 1 -1 3
10411 146 21 -4.2917858267880383e+01 -2.2501063371399056e+01 -4.3915847170745330e+01 1 -1 3
11253 567 21 -4.1336138989615897e+01 -2.3138264223099267e+01 -3.7734516729596869e+01 1 0 2
10792 337 21 -4.6831275037571977e+01 -2.1510811015639288e+01 -4.0820820441932462e+01 1 -1 2
11724 803 21 -3.7830774938507979e+01 -2.0180869915542381e+01 -4.1676044801917122e+01 0 -1 2
11725 803 21 -4.1656707110762106e+01 -1.8117210531437198e+01 -3.9470822280487909e+01 0 -1 2
11087 484 21 -4.6865221020437005e+01 -1.6323424608539774e+01 -3.7266806052459515e+01 0 -1 1
9311 71 25 -3.8158765886246073e+01 -2.3353197092380700e+01 -4.5688305751910576e+01 0 -1 1
9310 71 24 -3.7253914527933944e+01 -1.9207591164724249e+01 -4.6285289935640442e+01 0 -1 1
11520 701 21 -4.6167192323481459e+01 -1.6645587784521830e+01 -4.2325228368078044e+01 0 -1 3
13762 1822 21 -4.0668236006691224e+01 -1.6049504995611116e+01 -4.5703285840833864e+01 0 -2 2
10805 343 21 -3.8874798929444701e+01 -1.4105024835788228e+01 -3.8367321064834115e+01 0 -1 2
10144 13 21 -4.8605077578951430e+01 -1.5603988738811815e+01 -4.7479940512817649e+01 1 -1 1
13763 1822 21 -4.4480385913643701e+01 -1.3150429581930531e+01 -4.5605149455524199e+01 0 -2 2
10804 343 21 -4.2967785141847145e+01 -1.3027876210209705e+01 -4.0680172799381779e+01 0 -1 2
13635 1758 21 -3.7478899554603942e+01 -1.9466015511064761e+01 -3.6832889528527012e+01 0 -2 2
9306 71 23 -3.5456556720860881e+01 -1.2615519105300486e+01 -4.8885959624377605e+01 0 -1 1
11252 567 21 -3.6597250391704719e+01 -2.4068614633312816e+01 -3.8514228669930674e+01 1 0 2
13739 1810 21 -3.5973219760129460e+01 -1.5431822987065281e+01 -4.2428899178628619e+01 0 -1 2
12723 1302 21 -2.7684534779795268e+01 -1.6671129212773330e+01 -4.6059259791510627e+01 0 -1 2
9541 90 24 -2.7024612855973512e+01 -2.3786467165479262e+01 -4.5641084342131037e+01 0 -1 2
9779 110 25 -3.2961178319418806e+01 -1.8542459871790282e+01 -4.4267485519969540e+01 1 -1 2
11105 493 21 -3.2557380981988359e+01 -2.0025463323095515e+01 -3.8659763249916473e+01 1 -2 1
11104 493 21 -2.8872455013745938e+01 -2.0963658773134657e+01 -4.1687206340055511e+01 1 -2 1
9780 110 26 -3.3972109262206395e+01 -2.2401493467882730e+01 -4.2782683567646828e+01 1 -1 2
11133 507 21 -2.8876037571643757e+01 -1.6893196916554565e+01 -3.7041979614981770e+01 1 -1 1
13451 1666 21 -2.5648851591256115e+01 -1.5067051238774447e+01 -4.0995026188090179e+01 1 -1 2
9305 71 23 -3.6271173623003193e+01 -1.5431160166288180e+01 -4.6818826550951478e+01 0 -1 1
11132 507 21 -3.1129895322822797e+01 -1.5167120810896407e+01 -4.0997634988369946e+01 1 -1 1
9778 110 24 -3.2064392721887046e+01 -1.4745814871911364e+01 -4.5939559588688439e+01 1 -1 2
10572 227 21 -3.3991803727844022e+01 -2.3028366873562153e+01 -4.8124066723805157e+01 1 -3 1
999 20 18 -2.8541053774341641e+01 -1.2370494917978185e+01 -3.8575902450649565e+01 0 -1 2
9330 73 23 -2.7541034691582983e+01 -1.3063254957271567e+01 -4.8179924935916922e+01 0 -1 2
9337 73 24 -2.4648122339309186e+01 -1.2924605611545175e+01 -4.5454240895831248e+01 0 -1 2
10404 143 21 -3.4224159029385639e+01 -1.5393898380021525e+01 -3.7086367370028292e+01 0 -2 1
13450 1666 21 -2.3981842455398311e+01 -1.8924681014615729e+01 -3.8591862893417364e+01 1 -1 2
9534 90 23 -2.3480122382460557e+01 -2.2409869656694095e+01 -4.6577228274521019e+01 0 -1 2
12604 1243 21 -2.3241636879963234e+01 -2.3222676401725337e+01 -4.1636691148869431e+01 1 -1 1
12605 1243 21 -1.9125276620577488e+01 -2.1904085166394029e+01 -4.3871397901812557e+01 1 -1 1
10350 116 21 -1.4680617246930048e+01 -2.4079955181574565e+01 -4.3411872888079195e+01 1 -1 1
13041 1461 21 -1.6281715669077947e+01 -2.0942821085327239e+01 -4.0027219902851030e+01 -1 -2 1
13235 1558 21 -2.3110017599311668e+01 -1.8874664442252922e+01 -4.4372554178180962e+01 0 -2 2
9333 73 24 -1.5391680922712681e+01 -1.7715434149780815e+01 -4.4606973866070078e+01 0 -1 2
13234 1558 21 -1.9857804977904898e+01 -1.6916998130807524e+01 -4.1330111996770569e+01 0 -2 2
3674 73 1 -1.2684552929807140e+01 -1.7483316527388723e+01 -4.0832398859186242e+01 0 -1 2
3673 73 1 -1.5676363106985548e+01 -1.5264609362969260e+01 -3.9860341890498567e+01 0 -1 2
9332 73 25 -1.9176711045520815e+01 -1.7025858051799560e+01 -4.6505324580863025e+01 0 -1 2
9532 90 23 -2.0235059638623781e+01 -2.3444066206675188e+01 -4.7558733542333421e+01 0 -1 2
7829 48 16 -1.3195809284062676e+01 -1.3891643028076693e+01 -4.6600528501960554e+01 0 -1 2
7836 48 1 -1.2787520118414101e+01 -1.3883116487562518e+01 -4.2671004402099662e+01 0 -1 2
10080 135 24 -1.6636773315343255e+01 -1.3317036509250826e+01 -4.3891345841306936e+01 1 -1 1
9331 73 24 -2.2957509406818271e+01 -1.6332797859212896e+01 -4.8467632085201778e+01 0 -1 2
9533 90 23 -2.1452971781036275e+01 -2.0228449944349091e+01 -4.8603388309815386e+01 0 -1 2
9339 73 24 -1.8821826491419401e+01 -1.2732721889779945e+01 -3.9240411966545643e+01 0 -1 2
9338 73 25 -2.1615364120986701e+01 -1.2686480675104278e+01 -4.2405826462244029e+01 0 -1 2
13040 1461 21 -2.0280805627605957e+01 -2.2376350139592855e+01 -3.7705490877718297e+01 -1 -2 1
7828 48 2 -1.5590470021893488e+01 -1.5748521226317038e+01 -4.8569463437799293e+01 0 -1 2
10079 135 25 -1.9808202035685571e+01 -1.2319790529533250e+01 -4.6637509984584050e+01 1 -1 1
11079 480 21 -1.7387097187858377e+01 -2.0505082800339835e+01 -4.8892735641938721e+01 -1 0 1
11078 480 21 -1.2724231420590129e+01 -1.9110957338589561e+01 -4.8894979001721417e+01 -1 0 1
10802 342 21 -4.0309321933402629e+00 -2.3315477244731387e+01 -4.8368418925903129e+01 -1 -1 2
10980 431 21 -1.1839169830038642e+01 -2.0185075236633242e+01 -3.7464200511952896e+01 1 0 2
3675 73 2 -1.0771454910529258e+01 -2.0789231172618589e+01 -4.1773764735518576e+01 0 -1 2
11338 610 21 -5.0850222425465716e+00 -2.1188319728312646e+01 -4.3628424683324262e+01 0 -2 2
12536 1209 21 -1.0050513565252359e+01 -2.4365593910276175e+01 -3.9475162462750447e+01 0 -2 2
13587 1734 21 -2.9187469002878643e+00 -2.2274909506905306e+01 -3.8946136164954886e+01 -1 -1 0
3676 73 16 -7.6113638768823719e+00 -2.0767475268976213e+01 -4.0248242433169004e+01 0 -1 2
2599 51 2 -1.1381027633765186e+01 -2.1720413308021136e+01 -4.5666852623711243e+01 0 -1 2
11339 610 21 -3.5535870147725674e+00 -1.8454801468549338e+01 -4.7267164089288087e+01 0 -2 2
5213 2 1 -8.1177124569040160e-01 -2.1698186015600989e+01 -4.5579753062167754e+01 0 -2 2
2600 51 1 -8.4330483129448339e+00 -1.9271595988612315e+01 -4.6266575404531423e+01 0 -1 2
3677 73 15 -8.9721596248740099e+00 -1.7894349826426232e+01 -3.9505719489015121e+01 0 -1 2
2601 51 1 -1.1364348433778339e+01 -1.7457386767665323e+01 -4.4492546801633068e+01 0 -1 2
3679 73 15 -7.9600621625868726e+00 -1.8134753835568826e+01 -4.2736220779674525e+01 0 -1 2
13247 1564 21 -4.7496047670956116e+00 -1.7634993721290076e+01 -3.9551865463064217e+01 1 -1 2
3678 73 15 -9.6085826432672405e+00 -1.5463869606351139e+01 -4.1640163247495799e+01 0 -1 2
7834 48 2 -9.2070864859914892e+00 -1.4594565652278000e+01 -4.7101305019197682e+01 0 -1 2
11262 572 21 -1.1277040731968711e+01 -1.5343258494128477e+01 -3.6990022001432841e+01 1 -1 2
3680 73 16 -6.0932255059552745e+00 -1.5552127188845311e+01 -4.3400466073413554e+01 0 -1 2
2598 51 19 -8.7287861987608864e+00 -2.3412464709149290e+01 -4.7784713964830011e+01 0 -1 2
3681 73 2 -2.8892438017342101e+00 -1.4392118026039334e+01 -4.2461960173228974e+01 0 -1 2
11018 450 21 -1.2464847683687736e+00 -1.4056806945902402e+01 -3.8194555589048065e+01 1 0 2
12785 1333 21 -4.7109227310824764e+00 -1.3517120663896364e+01 -4.7473379637001678e+01 0 -1 2
13246 1564 21 -5.8557164144258564e+00 -1.2958996790362598e+01 -3.8830272917976174e+01 1 -1 2
2974 59 19 -3.8944052692819909e+01 -4.5514255342167331e-01 -4.2509795891795832e+01 0 -2 2
2971 59 18 -4.2874554785794210e+01 -2.3049883796758053e+00 -3.6903629828297937e+01 0 -2 2
1017 20 19 -4.8017933814836852e+01 -2.9729791384051083e+00 -4.3063957713027243e+01 0 -1 2
3001 59 2 -4.1659806406372667e+01 -4.7418393659101312e+00 -4.6287359372126936e+01 0 -2 2
3336 66 15 -3.9772361634721413e+01 -4.5708044200198046e+00 -3.6703940636439086e+01 0 -2 2
3000 59 1 -4.0439963025449032e+01 -4.2136187154710427e+00 -4.2617620584964143e+01 0 -2 2
2999 59 2 -4.3713358015777771e+01 -6.1503486260937450e+00 -4.3186951005793119e+01 0 -2 2
3335 66 16 -3.9118295532630327e+01 -6.2214213363709021e+00 -3.9501518063599264e+01 0 -2 2
3334 66 2 -4.2640869456450126e+01 -5.6929643142792230e+00 -3.9543380665018859e+01 0 -2 2
1011 20 1 -3.7638299617879227e+01 -9.7908787296027242e+00 -3.9702696872164850e+01 0 -1 2
1013 20 19 -4.1558623510773764e+01 -8.9682149570131813e+00 -4.1694093518571606e+01 0 -1 2
1014 20 18 -4.5159888371091270e+01 -8.9918784907021490e+00 -4.0645379494520746e+01 0 -1 2
1012 20 2 -3.9078141241799017e+01 -1.1588194339210673e+01 -4.2794355581740497e+01 0 -1 2
3333 66 1 -4.1972541133242792e+01 -8.9948139688040811e+00 -3.7556721652562224e+01 0 -2 2
1015 20 18 -4.7487372930792667e+01 -8.1738491684120547e+00 -3.7841392225324327e+01 0 -1 2
1016 20 18 -4.7194192027842789e+01 -5.5112937532063810e+00 -4.0444569925628883e+01 0 -1 2
11521 701 21 -4.7953359308538168e+01 -1.2188290725680048e+01 -4.1703876573642148e+01 0 -1 3
3339 66 16 -4.8568188390441748e+01 -4.9189150884369894e+00 -3.6709300090764991e+01 0 -2 2
9777 110 24 -4.6454864560366737e+01 -8.8136586168439521e+00 -4.5335578608160432e+01 1 -1 2
3338 66 15 -4.5272570382778703e+01 -5.0023559747528807e+00 -3.7192101047395198e+01 0 -2 2
9776 110 25 -4.2213623323694883e+01 -9.1606479868134087e+00 -4.5838784954631400e+01 1 -1 2
9775 110 24 -3.7968978020468491e+01 -9.3752756168316012e+00 -4.6485330745216956e+01 1 -1 2
3006 59 19 -4.6308462208611687e+01 -4.6960901779189541e+00 -4.6255927668567075e+01 0 -2 2
2960 59 1 -4.6951300445805494e+01 -1.9379231103886312e+00 -3.8787458316412867e+01 0 -2 2
985 20 19 -3.7560008880462654e+01 -6.8733653410772533e+00 -4.2721325363722258e+01 0 -1 2
2973 59 18 -3.9563279574885598e+01 -1.6759389671120246e+00 -3.9033256725333793e+01 0 -2 2
2997 59 15 -4.4050076523351265e+01 -2.0225798136454785e+00 -4.7258050705325054e+01 0 -2 2
2998 59 16 -4.4175277801174808e+01 -2.7327156269285737e+00 -4.4046814662477487e+01 0 -2 2
2972 59 18 -4.2920898686133839e+01 -1.9672013789463705e+00 -4.0622391245783525e+01 0 -2 2
2975 59 2 -3.7849053058539589e+01 -2.7809118006412348e+00 -4.5315939597527738e+01 0 -2 2
984 20 18 -3.6781646503707933e+01 -3.6431370546096602e+00 -4.1095841159319164e+01 0 -1 2
2981 59 15 -4.7077345519375001e+01 -7.5212291521842900e-01 -4.5672456470826866e+01 0 -2 2
2978 59 16 -4.1420314390341360e+01 -1.1361081639474691e+00 -4.5242647797103153e+01 0 -2 2
3002 59 19 -4.0664563934313271e+01 -2.1835251902881510e+00 -4.8864424718613975e+01 0 -2 2
988 20 2 -3.0891435373007528e+01 -2.7649589761495506e+00 -4.8739362542313970e+01 0 -1 2
983 20 18 -3.5820300400988081e+01 -1.3266071983515815e-01 -4.0307632436099524e+01 0 -1 2
973 20 16 -3.6501506640225912e+01 -2.2508529557146844e+00 -3.7007068653438374e+01 0 -1 2
987 20 1 -3.4533769636051048e+01 -2.3702490150921989e+00 -4.7340656755346835e+01 0 -1 2
994 20 2 -3.1137025623966899e+01 -3.1900338396136405e+00 -4.4718525516935458e+01 0 -1 2
3020 60 2 -2.9727246259722296e+01 -5.1973296716049688e+00 -3.7014460897391167e+01 0 -1 1
1009 20 16 -3.3587579346305787e+01 -1.0779701386220985e+01 -3.8803995004731455e+01 0 -1 2
10403 142 21 -2.5475639915359096e+01 -1.0049968268358626e+01 -4.0977701899653617e+01 0 -1 1