LAMMPS data file via write_data, version 31 Mar 2017, timestep = 5000000

16380 atoms
26 atom types
14266 bonds
127 bond types
3588 angles
4 angle types

-1.5108958282579246e+02 1.5108958282579246e+02 xlo xhi
-1.5108958282579246e+02 1.5108958282579246e+02 ylo yhi
-1.5108958282579246e+02 1.5108958282579246e+02 zlo zhi

Masses

1 34.716
2 25.716
3 34.716
4 48.07
5 39.07
6 48.07
7 24.707
8 22.707
9 22.707
10 24.707
11 10.681
12 9.681
13 8.681
14 10.681
15 33.226
16 24.226
17 17.226
18 34.436
19 25.436
20 18.436
21 57.09
22 43.025
23 42.017
24 42.395
25 41.387
26 42.395

Bond Coeffs # harmonic

1 300 3.86133
2 300 4.18975
3 300 3.556
4 300 2.67034
5 300 3.29076
6 300 3.73382
7 300 4.8409
8 300 3.60687
9 300 4.28732
10 300 3.57605
11 300 3.79758
12 300 3.74025
13 300 3.96178
14 300 3.11317
15 300 3.42338
16 300 3.64491
17 300 2.98055
18 300 3.20208
19 300 3.9471
20 300 4.07433
21 300 4.23853
22 300 3.47883
23 300 3.92166
24 300 4.07433
25 150 4.07433
26 150 4.07433
27 100 4.07433
28 75 4.07433
29 60 4.07433
30 30 4.07433
31 15 4.07433
32 10 4.07433
33 7.5 4.07433
34 6 4.07433
35 5 4.07433
36 4.2857 4.07433
37 3.75 4.07433
38 3.333 4.07433
39 3 4.07433
40 2.7272 4.07433
41 2.5 4.07433
42 2.3077 4.07433
43 2.1429 4.07433
44 1.875 4.07433
45 1.875 4.07433
46 1.7647 4.07433
47 1.66667 4.07433
48 1.5789 4.07433
49 1.5 4.07433
50 150 4.23853
51 300 4.23853
52 150 4.23853
53 100 4.23853
54 75 4.23853
55 60 4.23853
56 30 4.23853
57 15 4.23853
58 10 4.23853
59 7.5 4.23853
60 6 4.23853
61 1.875 4.23853
62 4.2857 4.23853
63 3.75 4.23853
64 3.333 4.23853
65 3 4.23853
66 2.7272 4.23853
67 2.5 4.23853
68 2.3077 4.23853
69 2.1429 4.23853
70 2 4.23853
71 1.875 4.23853
72 1.7647 4.23853
73 1.66667 4.23853
74 1.5789 4.23853
75 1.5 4.23853
76 300 3.92482
77 150 3.92482
78 150 3.92482
79 100 3.92482
80 75 3.92482
81 60 3.92482
82 30 3.92482
83 15 3.92482
84 10 3.92482
85 7.5 3.92482
86 6 3.92482
87 5 3.92482
88 4.2857 3.92482
89 3.75 3.92482
90 3.333 3.92482
91 3 3.92482
92 2.7272 3.92482
93 2.5 3.92482
94 2.3077 3.92482
95 2.1429 3.92482
96 1.875 3.92482
97 1.875 3.92482
98 1.7647 3.92482
99 1.66667 3.92482
100 1.5789 3.92482
101 1.5 3.92482
102 300 3.47883
103 150 3.47883
104 150 3.47883
105 100 3.47883
106 75 3.47883
107 60 3.47883
108 30 3.47883
109 15 3.47883
110 10 3.47883
111 7.5 3.47883
112 6 3.47883
113 5 3.47883
114 4.2857 3.47883
115 3.75 3.47883
116 3.333 3.47883
117 3 3.47883
118 2.7272 3.47883
119 2.5 3.47883
120 2.3077 3.47883
121 2.1429 3.47883
122 1.875 3.47883
123 1.875 3.47883
124 1.7647 3.47883
125 1.66667 3.47883
126 1.5789 3.47883
127 1.5 3.47883

Angle Coeffs # harmonic

1 300 180
2 300 60
3 300 150
4 1 180

Atoms # molecular

12766 512 21 -1.3952141636524874e+02 -1.4858551189645331e+02 -1.4903951328974713e+02 -487 -186 -481
12765 512 21 -1.4185954967655243e+02 -1.4676508886140860e+02 -1.4523200566087928e+02 -487 -186 -481
12616 437 21 -1.3980113182000846e+02 -1.4143601178894070e+02 -1.4628389737418146e+02 -487 -186 -481
11780 19 21 -1.4470897175012149e+02 -1.4281600475935440e+02 -1.4333472467439196e+02 -486 -187 -481
2400 48 5 -1.3996631774316421e+02 -1.4882520262868863e+02 -1.4137896919696897e+02 -487 -187 -480
14288 1273 21 -1.4120527879371488e+02 -1.3983093183144905e+02 -1.4126953704608388e+02 -487 -186 -480
2398 48 4 -1.4575289098758091e+02 -1.4335771617808982e+02 -1.3882181395527056e+02 -487 -187 -480
2399 48 4 -1.4284548871244957e+02 -1.4607873964739957e+02 -1.4014320569394079e+02 -487 -187 -480
2404 48 15 -1.3762742331979746e+02 -1.4666032680242924e+02 -1.4567184628639535e+02 -487 -187 -480
2405 48 16 -1.3867645036855103e+02 -1.4972564685508573e+02 -1.4508051677722554e+02 -487 -187 -480
14588 1423 21 -1.3882182074106856e+02 -1.4428908759013095e+02 -1.4215397794097163e+02 -487 -187 -481
8921 68 4 -1.3722328563554828e+02 -1.4441335150403262e+02 -1.4889060676746766e+02 -487 -187 -480
8922 68 5 -1.3538343222137263e+02 -1.4341966549179722e+02 -1.4526146697304924e+02 -487 -187 -480
2401 48 16 -1.3660532831179779e+02 -1.4813357964818221e+02 -1.4283635165000223e+02 -487 -187 -480
197 4 19 -1.3480394921936119e+02 -1.4777223062038814e+02 -1.4924763917955624e+02 -487 -186 -480
198 4 18 -1.3271582109752006e+02 -1.4489123624268012e+02 -1.4810188900860797e+02 -487 -186 -480
2403 48 15 -1.3438500461448945e+02 -1.4717895015036680e+02 -1.4560841932084242e+02 -487 -187 -480
1078 22 15 -1.3139530881189535e+02 -1.4738332375526284e+02 -1.5084627418694436e+02 -487 -187 -480
15206 1732 21 -1.3138738680581133e+02 -1.4979635073290316e+02 -1.4727781216079578e+02 -487 -186 -479
14975 1617 21 -1.2839770955481103e+02 -1.4524016572782443e+02 -1.4878134747092261e+02 -488 -187 -481
15205 1732 21 -1.2832489504077989e+02 -1.5027614182192181e+02 -1.5098091975007756e+02 -487 -186 -479
1112 22 2 -1.3137759060146075e+02 -1.4197780134047258e+02 -1.5036163340627098e+02 -487 -187 -480
8923 68 16 -1.3456243902742236e+02 -1.4156904430899371e+02 -1.4840434541451700e+02 -487 -187 -480
199 4 18 -1.3159600004829028e+02 -1.4174584785652962e+02 -1.4637955957765271e+02 -487 -186 -480
2402 48 15 -1.3331153755507347e+02 -1.4839032069978825e+02 -1.4274124331593370e+02 -487 -187 -480
12814 536 21 -1.3038547513287074e+02 -1.4569592956431319e+02 -1.4425652694428598e+02 -488 -186 -480
16015 2137 21 -1.3178193939223675e+02 -1.4146450243814797e+02 -1.4192871547484418e+02 -487 -186 -481
1111 22 16 -1.2907230981837236e+02 -1.3985688474124152e+02 -1.4865671349138805e+02 -487 -187 -480
8930 68 5 -1.3654247419209165e+02 -1.4019409620819815e+02 -1.4176989916004430e+02 -487 -187 -480
14587 1423 21 -1.3453198547886211e+02 -1.4535303157887677e+02 -1.4016834741412904e+02 -487 -187 -481
10422 54 26 -1.3011403815973009e+02 -1.4804831518144312e+02 -1.4009746097110721e+02 -487 -187 -481
16016 2137 21 -1.2788121782500498e+02 -1.4379546470542815e+02 -1.4019873582779232e+02 -487 -186 -481
10415 54 25 -1.2643851768249530e+02 -1.5036933811177838e+02 -1.4648181221789943e+02 -487 -187 -481
12813 536 21 -1.2736413193883836e+02 -1.4199306079464907e+02 -1.4498102192388166e+02 -488 -186 -480
14976 1617 21 -1.2437588839396597e+02 -1.4257997180347365e+02 -1.4925783405805959e+02 -488 -187 -481
10416 54 24 -1.2550167662453502e+02 -1.4646956442360718e+02 -1.4499899551875910e+02 -487 -187 -481
204 4 4 -1.2333950487517599e+02 -1.4348863652876452e+02 -1.4207112856347479e+02 -487 -186 -480
203 4 4 -1.2490709849255551e+02 -1.3969576876891082e+02 -1.4131525068869649e+02 -487 -186 -480
16022 2140 21 -1.0340766338343511e+02 -1.4958906245682491e+02 -1.5049954981529038e+02 -488 -187 -481
11198 119 25 -7.8749387886574596e-02 -1.5069770235145694e+02 -1.3897272946165657e+02 -488 -187 -481
13954 1106 21 -1.4050578843406973e+02 -1.3718189990826082e+02 -1.4943912285970376e+02 -488 -186 -481
11779 19 21 -1.4385586948339869e+02 -1.3851963814762848e+02 -1.4538258834334340e+02 -486 -187 -481
877 18 1 -1.4233384622170604e+02 -1.3094691303422536e+02 -1.4811433118639528e+02 -487 -187 -481
876 18 2 -1.4233997055794606e+02 -1.3441459771265701e+02 -1.4640289888350458e+02 -487 -187 -481
874 18 15 -1.3966038901617350e+02 -1.2981921051613548e+02 -1.4576696837507492e+02 -487 -187 -481
879 18 19 -1.4582543273268550e+02 -1.2986259919330394e+02 -1.4651160004115593e+02 -487 -187 -481
15063 1661 21 -1.4538457999927007e+02 -1.3837792449583702e+02 -1.5038068315682875e+02 -487 -185 -480
878 18 2 -1.4292759105625430e+02 -1.3082077600839784e+02 -1.4428277500496483e+02 -487 -187 -481
875 18 16 -1.3980081081670261e+02 -1.3284879836663532e+02 -1.4445656489774279e+02 -487 -187 -481
13763 1011 21 -1.4698852215669683e+02 -1.3398900747411787e+02 -1.4786664076362405e+02 -487 -187 -481
2036 40 18 -1.4482827737931225e+02 -1.2848457140030413e+02 -1.5021829828696343e+02 -487 -187 -481
13422 840 21 -1.4608982637881613e+02 -1.3871936068284035e+02 -1.4059740076924956e+02 -487 -186 -480
14287 1273 21 -1.4218296376180004e+02 -1.3506996798177542e+02 -1.4163595362100580e+02 -487 -186 -480
13128 693 21 -1.4686133770671768e+02 -1.3229025151082413e+02 -1.4287184006919281e+02 -487 -187 -481
883 18 19 -1.4867013022423055e+02 -1.2840772090746151e+02 -1.4431729891990548e+02 -487 -187 -481
13421 840 21 -1.4891389063034350e+02 -1.3687418049209595e+02 -1.4407576425743946e+02 -487 -186 -480
15510 1884 21 -1.4982428374789870e+02 -1.2975730586618877e+02 -1.4895670373053721e+02 -487 -186 -480
13127 693 21 -1.4788943252569075e+02 -1.2866508596780963e+02 -1.3982786797688385e+02 -487 -187 -481
15959 2109 21 -1.4320284687276936e+02 -1.3029886453438127e+02 -1.3978412914613935e+02 -486 -187 -481
13953 1106 21 -1.3841175895516255e+02 -1.3295104580725649e+02 -1.4847287504427968e+02 -488 -186 -481
12615 437 21 -1.3872894097418811e+02 -1.3693106944637637e+02 -1.4485289645437751e+02 -487 -186 -481
8940 68 7 -1.3754844469497502e+02 -1.3404545306485701e+02 -1.4168652536727399e+02 -487 -187 -480
8962 68 18 -1.3908185846699479e+02 -1.3066068551678751e+02 -1.4158717106099340e+02 -487 -187 -480
8925 68 15 -1.3623948971497012e+02 -1.3706888527669346e+02 -1.5084513515780546e+02 -487 -187 -480
8924 68 15 -1.3693216739460800e+02 -1.3929574225120982e+02 -1.4849561808214625e+02 -487 -187 -480
8926 68 15 -1.3574826072376905e+02 -1.3620062727982693e+02 -1.4771929443681006e+02 -487 -187 -480
8960 68 13 -1.3512359068706809e+02 -1.3090909423536095e+02 -1.4716043808728654e+02 -487 -187 -480
8959 68 11 -1.3519897754648190e+02 -1.3348331000979579e+02 -1.4648788420836428e+02 -487 -187 -480
8958 68 12 -1.3525927104907015e+02 -1.3438081390857906e+02 -1.4398112760228955e+02 -487 -187 -480
8961 68 20 -1.3654203579501797e+02 -1.3123081725492383e+02 -1.4431287676963848e+02 -487 -187 -480
8928 68 5 -1.3265482108718487e+02 -1.3817569098436923e+02 -1.4890603644713303e+02 -487 -187 -480
16178 2218 21 -1.3347219570770736e+02 -1.3338087055472130e+02 -1.4991298023363507e+02 -488 -187 -480
8929 68 4 -1.3459887962183836e+02 -1.3911024886847639e+02 -1.4532649407468944e+02 -487 -187 -480
8927 68 16 -1.3294047318517127e+02 -1.3568597050844173e+02 -1.4611604740095711e+02 -487 -187 -480
1116 22 18 -1.3270448603080413e+02 -1.3202111141330354e+02 -1.4485561523096331e+02 -487 -187 -480
1114 22 2 -1.2881189207570552e+02 -1.3609706921665517e+02 -1.4953779935952065e+02 -487 -187 -480
1119 22 19 -1.2953093563851468e+02 -1.3125774300781049e+02 -1.5052604152843116e+02 -487 -187 -480
1115 22 19 -1.3009997190039110e+02 -1.3353819000267015e+02 -1.4702058310968860e+02 -487 -187 -480
200 4 18 -1.3043803244082787e+02 -1.3832618650954743e+02 -1.4541842104455878e+02 -487 -186 -480
1118 22 18 -1.3160822884768604e+02 -1.2973206810120547e+02 -1.4785721297768654e+02 -487 -187 -480
8938 68 12 -1.3252851556400324e+02 -1.3493878520347786e+02 -1.4301066918610729e+02 -487 -187 -480
201 4 19 -1.2909348030693886e+02 -1.3539167768544110e+02 -1.4359557265885991e+02 -487 -186 -480
8950 68 19 -1.2909878965946933e+02 -1.3093649247594544e+02 -1.4408359119698545e+02 -487 -187 -480
16177 2218 21 -1.3516522253589244e+02 -1.2889665219364301e+02 -1.5049942925271031e+02 -488 -187 -480
8939 68 8 -1.3491210037358132e+02 -1.3642467224504148e+02 -1.4164280462189009e+02 -487 -187 -480
8941 68 9 -1.3427401387009803e+02 -1.3265035797131767e+02 -1.4130423887500848e+02 -487 -187 -480
9172 2 15 -1.3132518101306420e+02 -1.3734637660702046e+02 -1.4143325754601784e+02 -487 -187 -481
8937 68 11 -1.3090276370139196e+02 -1.3308345873167585e+02 -1.4197073414557462e+02 -487 -187 -480
9173 2 15 -1.2850106698685593e+02 -1.3872799989966137e+02 -1.4237736830785244e+02 -487 -187 -481
8936 68 13 -1.3177081830004136e+02 -1.3056060018778265e+02 -1.4198532622150509e+02 -487 -187 -480
8942 68 17 -1.3457040079173862e+02 -1.2926648774514115e+02 -1.4169918086339857e+02 -487 -187 -480
872 18 15 -1.3936010594093688e+02 -1.2885409977041056e+02 -1.4907209722288351e+02 -487 -187 -481
873 18 15 -1.3711480932943951e+02 -1.2804129595794461e+02 -1.4682927089263350e+02 -487 -187 -481
1117 22 18 -1.3393924705684549e+02 -1.2851736386912756e+02 -1.4523622704572159e+02 -487 -187 -480
1094 22 15 -1.2859817586926988e+02 -1.2785555818309048e+02 -1.4884966186108971e+02 -487 -187 -480
8949 68 5 -1.2812559821036726e+02 -1.2808604640656040e+02 -1.4150507331573951e+02 -487 -187 -480
8931 68 19 -1.3799331878729728e+02 -1.3726073840366558e+02 -1.3954823979414658e+02 -487 -187 -480
8933 68 18 -1.3652511269463525e+02 -1.3102071099059370e+02 -1.3878542788574043e+02 -487 -187 -480
9171 2 15 -1.3217375454508920e+02 -1.3482606055932831e+02 -1.3950022013489064e+02 -487 -187 -481
11980 119 21 -1.2886661962146968e+02 -1.3227492389005090e+02 -1.3852816598955110e+02 -487 -186 -481
8935 68 20 -1.3180115574486032e+02 -1.2905380644224664e+02 -1.3915459422118596e+02 -487 -187 -480
1108 22 15 -1.2641485839403332e+02 -1.3306199775913873e+02 -1.4967724469466751e+02 -487 -187 -480
1110 22 15 -1.2642947065504964e+02 -1.3840041527113593e+02 -1.4739452783718076e+02 -487 -187 -480
1107 22 16 -1.2755716986651312e+02 -1.3088701454224611e+02 -1.4750358764713593e+02 -487 -187 -480
1106 22 5 -1.2608301001611447e+02 -1.3391838898703395e+02 -1.4594655624972768e+02 -487 -187 -480
9174 2 16 -1.2606169635705733e+02 -1.3737972174933265e+02 -1.4417451716914533e+02 -487 -187 -481
202 4 5 -1.2655574099190821e+02 -1.3592338000893565e+02 -1.4059210586288307e+02 -487 -186 -480
1109 22 15 -1.2504914284953441e+02 -1.3600494356204544e+02 -1.4914379098833919e+02 -487 -187 -480
13489 874 21 -1.2171448153332889e+02 -1.3818127393251496e+02 -1.5053177090940534e+02 -488 -186 -481
13490 874 21 -1.2233642302614795e+02 -1.3341955490006967e+02 -1.5103859748649805e+02 -488 -186 -481
13076 667 21 -1.2255228669774156e+02 -1.3945297055578294e+02 -1.4563465796617470e+02 -487 -187 -481
12314 286 21 -1.2226007631260791e+02 -1.3095916930336998e+02 -1.4576616591784986e+02 -488 -187 -480
12313 286 21 -1.1993892334033845e+02 -1.3510715790169377e+02 -1.4664494580404320e+02 -488 -187 -480
9175 2 2 -1.2319065275707877e+02 -1.3539288018243565e+02 -1.4333597614937520e+02 -487 -187 -481
13169 714 21 -1.2460594495846797e+02 -1.2900257473249189e+02 -1.4981802300998612e+02 -487 -187 -481
1105 22 4 -1.2544947318521692e+02 -1.3181802520816967e+02 -1.4239392598004653e+02 -487 -187 -480
13075 667 21 -1.2035406218801492e+02 -1.3845356232643866e+02 -1.4144482894985586e+02 -487 -187 -481
9176 2 1 -1.1973157166000559e+02 -1.3397066408945341e+02 -1.4231030961417977e+02 -487 -187 -481
9177 2 2 -1.1629445615161070e+02 -1.3261848556481803e+02 -1.4110293215244411e+02 -487 -187 -481
1102 22 18 -1.2599309130735477e+02 -1.2862148987923803e+02 -1.4509341482822927e+02 -487 -187 -480
1103 22 19 -1.2343364429528165e+02 -1.2820856356992257e+02 -1.4235934332306726e+02 -487 -187 -480
1104 22 5 -1.2485783583456380e+02 -1.2958064180479835e+02 -1.3891751022015546e+02 -487 -187 -480
9178 2 19 -1.1312839884970060e+02 -1.3079346025718550e+02 -1.3995900712510161e+02 -487 -187 -481
9179 2 18 -1.0974400309143218e+02 -1.2973531063089149e+02 -1.3870851713380060e+02 -487 -187 -481
14331 1295 21 -1.4265472057676479e+02 -1.2180572114173097e+02 -1.4709054738513942e+02 -487 -186 -480
14332 1295 21 -1.4244833657806089e+02 -1.2664208806829089e+02 -1.4693631875743966e+02 -487 -186 -480
882 18 18 -1.4515818078389128e+02 -1.2771881032703212e+02 -1.4322947117150679e+02 -487 -187 -481
908 18 2 -1.4449581090829176e+02 -1.2086398881136623e+02 -1.4298058590844730e+02 -487 -187 -481
881 18 18 -1.4559830685914559e+02 -1.2434525171971245e+02 -1.4473661888360112e+02 -487 -187 -481
886 18 5 -1.4562201423414405e+02 -1.1978440116485552e+02 -1.5022407767939691e+02 -487 -187 -481
2033 40 19 -1.4470091655631609e+02 -1.2449048588408282e+02 -1.5011216853863647e+02 -487 -187 -481
8965 68 19 -1.4212047156296478e+02 -1.2406108719883842e+02 -1.4308428524759680e+02 -487 -187 -480
8966 68 2 -1.4044346567896579e+02 -1.2066625069718701e+02 -1.4338219259505686e+02 -487 -187 -480
8964 68 18 -1.4125413966661449e+02 -1.2765929491690250e+02 -1.4277554030326399e+02 -487 -187 -480
885 18 4 -1.4769081264866162e+02 -1.2218162918698268e+02 -1.4752278881709941e+02 -487 -187 -481
909 18 1 -1.4290727491762090e+02 -1.1781265656432980e+02 -1.4469101938710631e+02 -487 -187 -481
910 18 2 -1.4260046150809819e+02 -1.1810364853433848e+02 -1.4085440932320412e+02 -487 -187 -481
906 18 15 -1.4595210989295373e+02 -1.1744353479248801e+02 -1.4233199593217705e+02 -487 -187 -481
880 18 18 -1.4701972313605330e+02 -1.2647121982407137e+02 -1.4746714010039372e+02 -487 -187 -481
887 18 16 -1.4436682427048640e+02 -1.1695995142007524e+02 -1.4818521971731124e+02 -487 -187 -481
884 18 5 -1.4978640060512043e+02 -1.2465368530071072e+02 -1.4489530704007026e+02 -487 -187 -481
2038 40 5 -1.5059367874699379e+02 -1.2520325209883103e+02 -1.4918994010496550e+02 -487 -187 -481
12406 332 21 -1.4893949156202260e+02 -1.1759825569173093e+02 -1.4748015641427574e+02 -487 -186 -480
15531 1895 21 -1.4900918940803172e+02 -1.2034895728831098e+02 -1.4327729272725750e+02 -488 -187 -481
15532 1895 21 -1.4698390014568693e+02 -1.2379534460731085e+02 -1.4054815294654972e+02 -488 -187 -481
907 18 16 -1.4593023460547320e+02 -1.1970806960852656e+02 -1.3991874928097405e+02 -487 -187 -481
12497 378 21 -1.4228225335967460e+02 -1.2235492542501736e+02 -1.3899740545884507e+02 -486 -187 -482
904 18 15 -1.4858179246846973e+02 -1.1754979671539058e+02 -1.4005958590153341e+02 -487 -187 -481
871 18 16 -1.3870995726368491e+02 -1.2563787069364747e+02 -1.4885439596167160e+02 -487 -187 -481
869 18 4 -1.3763827188838599e+02 -1.2050754528625066e+02 -1.4697867802517567e+02 -487 -187 -481
870 18 5 -1.3876291029073172e+02 -1.2420264908479120e+02 -1.4538874126247788e+02 -487 -187 -481
8963 68 18 -1.3757109441922972e+02 -1.2763964681590748e+02 -1.4320858566223248e+02 -487 -187 -480
8968 68 2 -1.3726177677223436e+02 -1.2255737366884438e+02 -1.4162381004742471e+02 -487 -187 -480
1090 22 5 -1.3507311733504073e+02 -1.2424157111973028e+02 -1.4811063239481521e+02 -487 -187 -480
1091 22 16 -1.3293363265964501e+02 -1.2511924537071219e+02 -1.5105487679196790e+02 -487 -187 -480
1089 22 4 -1.3436612902014016e+02 -1.2139256562028314e+02 -1.5107463204585068e+02 -487 -187 -480
1095 22 16 -1.3122806242601683e+02 -1.2596399316097128e+02 -1.4824789392313582e+02 -487 -187 -480
13061 660 21 -1.3115327714369178e+02 -1.2157690684969140e+02 -1.4754464834393735e+02 -488 -187 -481
1096 22 5 -1.2901247042526694e+02 -1.2449305252560742e+02 -1.5087980225297721e+02 -487 -187 -480
8952 68 18 -1.3250690920381805e+02 -1.2500992051609555e+02 -1.4495497782768331e+02 -487 -187 -480
8951 68 18 -1.2971833687557626e+02 -1.2748536385087118e+02 -1.4532305468650014e+02 -487 -187 -480
8954 68 19 -1.3399805595485481e+02 -1.1859886257431097e+02 -1.4567926824430828e+02 -487 -187 -480
8953 68 18 -1.3472451479031650e+02 -1.2207255024055013e+02 -1.4456651467752627e+02 -487 -187 -480
8947 68 5 -1.3112281510011891e+02 -1.2044288856460713e+02 -1.4303938786383216e+02 -487 -187 -480
10440 56 24 -1.3274616074833048e+02 -1.1759072701885991e+02 -1.4954384100266338e+02 -487 -187 -480
15990 2124 21 -1.2965803959231346e+02 -1.1694320801925133e+02 -1.4588900532741903e+02 -488 -187 -480
8972 68 15 -1.3490104014996405e+02 -1.1946419196539203e+02 -1.4207535345661648e+02 -487 -187 -480
8945 68 15 -1.3476257147506550e+02 -1.2547554689122165e+02 -1.4206267030739292e+02 -487 -187 -480
8946 68 16 -1.3352919665178206e+02 -1.2255462467450801e+02 -1.4116246351516065e+02 -487 -187 -480
8943 68 15 -1.3188969107205338e+02 -1.2746551306482240e+02 -1.4236285312509600e+02 -487 -187 -480
8948 68 4 -1.2962734648001148e+02 -1.2426224808408679e+02 -1.4225476117707552e+02 -487 -187 -480
12252 255 21 -1.3802090644213382e+02 -1.1692651367051829e+02 -1.4389399747962355e+02 -487 -187 -480
868 18 4 -1.3657091325350788e+02 -1.1675085388464643e+02 -1.4855498228559554e+02 -487 -187 -481
8973 68 16 -1.3386282775901944e+02 -1.1640367672170603e+02 -1.4274444825511327e+02 -487 -187 -480
12498 378 21 -1.3928090620546641e+02 -1.2614664689168565e+02 -1.3922174907688364e+02 -486 -187 -482
8967 68 1 -1.3890615114946851e+02 -1.1940875651530965e+02 -1.4007951898138751e+02 -487 -187 -480
8969 68 16 -1.3550558827573110e+02 -1.2406122871169157e+02 -1.3891911694109587e+02 -487 -187 -480
8971 68 15 -1.3548332937956891e+02 -1.2050675785547230e+02 -1.3900041666022443e+02 -487 -187 -480
8944 68 15 -1.3240177547950765e+02 -1.2548360814368158e+02 -1.3975952850658558e+02 -487 -187 -480
12568 413 21 -1.3189091460739175e+02 -1.1791081695473419e+02 -1.3911397211437358e+02 -487 -187 -480
13062 660 21 -1.2669521802692640e+02 -1.2006026537418364e+02 -1.4871104681073831e+02 -488 -187 -481
1097 22 4 -1.2730908589563151e+02 -1.2469705126641620e+02 -1.4707565468599219e+02 -487 -187 -480
1099 22 19 -1.2684320594374609e+02 -1.2134204903999807e+02 -1.4442546363318155e+02 -487 -187 -480
1098 22 5 -1.2553061258394182e+02 -1.2489184423737500e+02 -1.4326494957146869e+02 -487 -187 -480
13170 714 21 -1.2428752149544479e+02 -1.2423137674476034e+02 -1.5062444772065962e+02 -487 -187 -481
1100 22 18 -1.2388804814306258e+02 -1.2268185233691440e+02 -1.4631187331959416e+02 -487 -187 -480
1101 22 18 -1.2328257062357025e+02 -1.2639501492647672e+02 -1.4639476963181079e+02 -487 -187 -480
902 18 5 -1.4928892281458727e+02 -1.1368497292126293e+02 -1.3898726936115295e+02 -487 -187 -481
896 18 18 -1.4691502496164415e+02 -1.1272046490264296e+02 -1.4259250047772602e+02 -487 -187 -481
894 18 5 -1.4743167173478173e+02 -1.0982909450035359e+02 -1.4800511509686365e+02 -487 -187 -481
12251 255 21 -1.4087279694053572e+02 -1.1479028671933141e+02 -1.4717383072867736e+02 -487 -187 -480
12381 320 21 -1.4074806327046832e+02 -1.0759878681149388e+02 -1.5105235386367670e+02 -487 -187 -481
912 18 18 -1.4376586539329105e+02 -1.1209951126894880e+02 -1.4479900624595405e+02 -487 -187 -481
913 18 18 -1.4224711951438903e+02 -1.1050425676820004e+02 -1.4778030435875431e+02 -487 -187 -481
14883 1571 21 -1.4420550287769703e+02 -1.0635201569771303e+02 -1.4746479841340900e+02 -488 -187 -480
2026 40 15 -1.4455171045223972e+02 -1.0974110263835020e+02 -1.5059880700494526e+02 -487 -187 -481
897 18 18 -1.4594768871664820e+02 -1.1519464630343649e+02 -1.4521851844525540e+02 -487 -187 -481
914 18 18 -1.4482734216757902e+02 -1.1301464432804684e+02 -1.4877221755492209e+02 -487 -187 -481
1169 23 18 -1.4277840230256700e+02 -1.0852732353399904e+02 -1.4371876870389852e+02 -487 -187 -481
888 18 15 -1.4632334551503661e+02 -1.1583822354607659e+02 -1.5055409012576226e+02 -487 -187 -481
3139 62 19 -1.4677453113517521e+02 -1.0862335329945716e+02 -1.4406902586216268e+02 -487 -187 -481
1170 23 19 -1.4484241053150123e+02 -1.0553607576951202e+02 -1.4283466066793818e+02 -487 -187 -481
1168 23 18 -1.4484472160283005e+02 -1.0902147273441093e+02 -1.4065246330051099e+02 -487 -187 -481
911 18 19 -1.4365666871356595e+02 -1.1468796044413750e+02 -1.4212628434352885e+02 -487 -187 -481
12181 220 21 -1.4023832119960238e+02 -1.1175375286277719e+02 -1.4211216242738357e+02 -488 -187 -481
889 18 15 -1.4835031370049384e+02 -1.1364178047748854e+02 -1.4915578778652562e+02 -487 -187 -481
3140 62 18 -1.4881140073885700e+02 -1.0566093617327184e+02 -1.4303687851227974e+02 -487 -187 -481
15268 1763 21 -1.4911355415623720e+02 -1.0564334009307743e+02 -1.4895274122889552e+02 -487 -187 -480
893 18 4 -1.5019882383763189e+02 -1.1070163822334067e+02 -1.5106046563956329e+02 -487 -187 -481
3138 62 5 -1.4894867188166140e+02 -1.0966179017954072e+02 -1.4094832196554268e+02 -487 -187 -481
898 18 18 -1.4912564824102193e+02 -1.1581129310492261e+02 -1.4330378880202804e+02 -487 -187 -481
3137 62 4 -1.5087032508496284e+02 -1.0904757070354279e+02 -1.4465048050907117e+02 -487 -187 -481
895 18 19 -1.4898396240429824e+02 -1.1264735045133142e+02 -1.4568907468624991e+02 -487 -187 -481
905 18 15 -1.4565571905793740e+02 -1.1617236454411128e+02 -1.3933556824069709e+02 -487 -187 -481
9194 2 2 -1.4535047285468306e+02 -1.1253392335427009e+02 -1.3883081245515521e+02 -487 -187 -481
14398 1328 21 -1.4130467593536130e+02 -1.0642114133510324e+02 -1.4004286511226442e+02 -488 -186 -480
1171 23 5 -1.4630002136974585e+02 -1.0521809592956822e+02 -1.3916455281668161e+02 -487 -187 -481
8976 68 4 -1.3836389115356053e+02 -1.1125438834906100e+02 -1.4931360401434350e+02 -487 -187 -480
15798 2028 21 -1.3906117008748438e+02 -1.0755165809762329e+02 -1.4618185942975683e+02 -488 -186 -480
8975 68 4 -1.3703809579970073e+02 -1.1230311922232357e+02 -1.4548546710273678e+02 -487 -187 -480
8956 68 1 -1.3409955350919151e+02 -1.1177238669906643e+02 -1.4846964074225912e+02 -487 -187 -480
8955 68 2 -1.3371941830511429e+02 -1.1482714444231399e+02 -1.4609891230862613e+02 -487 -187 -480
15989 2124 21 -1.2862071276462399e+02 -1.1545185159264599e+02 -1.5038364588266646e+02 -488 -187 -480
8974 68 5 -1.3583680259684905e+02 -1.1340856115177715e+02 -1.4161857098308477e+02 -487 -187 -480
15797 2028 21 -1.3668479079121340e+02 -1.0762163676558129e+02 -1.4195929917580025e+02 -488 -186 -480
1172 23 4 -1.5004860549357727e+02 -1.0349138805064121e+02 -1.3976109412108707e+02 -487 -187 -481
9982 18 24 -1.5032442054184261e+02 -9.3768602355584960e+01 -1.4388825719316273e+02 -487 -187 -481
3131 62 16 -1.4691309772974998e+02 -1.0263563453831279e+02 -1.4217985716441606e+02 -487 -187 -481
14134 1196 21 -1.4165642923486979e+02 -1.0249998286893447e+02 -1.4955114088411639e+02 -488 -188 -480
14758 1508 21 -1.4331614777430352e+02 -9.7780969440839471e+01 -1.4898477517743029e+02 -487 -187 -481
974 20 15 -1.4059044101048914e+02 -9.6119824378294950e+01 -1.4598737328785890e+02 -487 -187 -480
14756 1507 21 -1.4520964858155475e+02 -9.9554997521805689e+01 -1.4453637531094301e+02 -488 -186 -481
14755 1507 21 -1.4532187017655446e+02 -9.4760003397106317e+01 -1.4529766462383373e+02 -488 -186 -481
3132 62 15 -1.4661836250762636e+02 -1.0353922013604253e+02 -1.4530040261698176e+02 -487 -187 -481
14383 1321 21 -1.4151267488610773e+02 -1.0307741428370312e+02 -1.4441677431099302e+02 -488 -186 -481
3129 62 4 -1.4813480373336992e+02 -9.6724096922998598e+01 -1.4190583360087618e+02 -487 -187 -481
15267 1763 21 -1.4684924081482669e+02 -1.0137718622313039e+02 -1.4895104225071552e+02 -487 -187 -480
15586 1922 21 -1.4356059119212784e+02 -9.6693374696363051e+01 -1.4059453724694433e+02 -488 -187 -480
9988 18 24 -1.4989850494067787e+02 -9.3055061062145498e+01 -1.4846925980410421e+02 -487 -187 -481
3130 62 5 -1.4986014115675118e+02 -1.0044506053055957e+02 -1.4279299678864268e+02 -487 -187 -481
3133 62 15 -1.4983556023664630e+02 -1.0301109186480626e+02 -1.4567320842961229e+02 -487 -187 -481
15817 2038 21 -1.4951344897313223e+02 -9.7521239121895121e+01 -1.4666576894514759e+02 -488 -188 -480
973 20 16 -1.4112337828375786e+02 -9.4051351333752194e+01 -1.4353357019821516e+02 -487 -187 -480
14384 1321 21 -1.4330619717946630e+02 -1.0170597292365602e+02 -1.4015015050500367e+02 -488 -186 -481
972 20 5 -1.3986477442323260e+02 -9.3979316773740408e+01 -1.4002281318017540e+02 -487 -187 -480
13677 968 21 -1.3851695235124859e+02 -9.9499792531899914e+01 -1.4720814897159255e+02 -487 -187 -480
976 20 15 -1.3699273573081211e+02 -9.5600137213792948e+01 -1.4640982870268468e+02 -487 -187 -480
14757 1508 21 -1.3929866953567728e+02 -9.5265906116266734e+01 -1.4998347686923256e+02 -487 -187 -481
16001 2130 21 -1.3885197177655644e+02 -9.7924679491940424e+01 -1.4249703682257606e+02 -487 -186 -480
14133 1196 21 -1.3719472503449208e+02 -1.0435035556496896e+02 -1.4975425238079436e+02 -488 -188 -480
13678 968 21 -1.3626002793048201e+02 -1.0309548804387364e+02 -1.4492857441165532e+02 -487 -187 -480
12455 357 21 -1.3336078007746335e+02 -1.0110924337655352e+02 -1.4994477291069143e+02 -488 -188 -480
16076 2167 21 -1.3422895310987977e+02 -9.6205381560282746e+01 -1.4957402007534034e+02 -487 -187 -481
1200 24 5 -1.2906463538531293e+02 -9.8709947822287845e+01 -1.5099571718586756e+02 -487 -187 -480
16075 2167 21 -1.3017502057353238e+02 -9.6548059107481450e+01 -1.4698885727203287e+02 -487 -187 -481
15300 1779 21 -1.3076747889867784e+02 -1.0157485281172805e+02 -1.4548345286509698e+02 -488 -187 -480
991 20 15 -1.3065726277847710e+02 -9.4369469406075197e+01 -1.5059725058430661e+02 -487 -187 -480
15299 1779 21 -1.3422155561304629e+02 -9.8291302989279302e+01 -1.4466435108152427e+02 -488 -187 -480
12202 230 21 -1.3604068110676997e+02 -9.3746982029292440e+01 -1.4279637270283601e+02 -487 -187 -481
979 20 1 -1.3138725369227618e+02 -9.4582100253747342e+01 -1.4304555361560853e+02 -487 -187 -480
16095 2177 21 -1.3341750260871396e+02 -1.0137748934099722e+02 -1.4077396399939715e+02 -487 -185 -481
998 20 18 -1.3039187102065830e+02 -9.8298022384478188e+01 -1.4217599522939599e+02 -487 -187 -480
975 20 15 -1.3917781876765346e+02 -9.3172043019219032e+01 -1.4615610661186031e+02 -487 -187 -480
978 20 2 -1.3310893339485088e+02 -9.3157466900404273e+01 -1.4618076704953501e+02 -487 -187 -480
16002 2130 21 -1.3829919474604699e+02 -1.0222660837421039e+02 -1.4029016767528211e+02 -487 -186 -480
999 20 18 -1.3342273783635622e+02 -9.6847372995249685e+01 -1.4048750475293016e+02 -487 -187 -480
982 20 18 -1.2991544447368517e+02 -9.5480014868929018e+01 -1.3953173295239716e+02 -487 -187 -480
981 20 19 -1.3279691041107424e+02 -9.3103902270172256e+01 -1.3966202640747380e+02 -487 -187 -480
13458 858 21 -1.2631304368675123e+02 -1.0133718417798325e+02 -1.4803722144953110e+02 -486 -187 -481
997 20 19 -1.2725697342768876e+02 -9.9006725854445662e+01 -1.4409131948682850e+02 -487 -187 -480
9671 11 2 -1.2733954593219654e+02 -9.4781960912354279e+01 -1.4377412102006451e+02 -487 -187 -481
992 20 15 -1.2741120842039386e+02 -9.3838808013906686e+01 -1.5045558664115669e+02 -487 -187 -480
996 20 5 -1.2547320615366908e+02 -9.6864125119649003e+01 -1.4691453749173533e+02 -487 -187 -480
10757 82 25 -1.2476286188118071e+02 -1.0262343830896351e+02 -1.4360508668662899e+02 -487 -187 -481
9672 11 19 -1.2422603038952408e+02 -9.6739283896983636e+01 -1.4283748979784824e+02 -487 -187 -481
13457 858 21 -1.2249877466736402e+02 -9.8959597282751545e+01 -1.4978734328162653e+02 -486 -187 -481
10758 82 24 -1.2207675386168752e+02 -1.0322968886791296e+02 -1.4686845544141229e+02 -487 -187 -481
9673 11 18 -1.2270206639719646e+02 -9.9345930755607483e+01 -1.4504505281146226e+02 -487 -187 -481